
     Program BANDS v.6.7MaX starts on  5Aug2023 at 13:27:27 

     This program is part of the open-source Quantum ESPRESSO suite
     for quantum simulation of materials; please cite
         "P. Giannozzi et al., J. Phys.:Condens. Matter 21 395502 (2009);
         "P. Giannozzi et al., J. Phys.:Condens. Matter 29 465901 (2017);
          URL http://www.quantum-espresso.org", 
     in publications or presentations arising from this work. More details at
     http://www.quantum-espresso.org/quote

     Parallel version (MPI), running on     1 processors

     MPI processes distributed on     1 nodes

     Reading xml data from directory:

     ./tmp/graphene1.save/
     file C.pbe-n-kjpaw_psl.1.0.0.UPF: wavefunction(s)  2S 2P renormalized

     IMPORTANT: XC functional enforced from input :
     Exchange-correlation= PBE
                           (   1   4   3   4   0   0   0)
     Any further DFT definition will be discarded
     Please, verify this is what you really want


     G-vector sticks info
     --------------------
     sticks:   dense  smooth     PW     G-vecs:    dense   smooth      PW
     Sum         547     547    163                86683    86683   14285


     Check: negative core charge=   -0.000002

     negative rho (up, down):  1.319E-04 0.000E+00
     Reading collected, re-writing distributed wavefunctions
     high-symmetry point:  0.0000 0.0000 0.0000   x coordinate   0.0000
     high-symmetry point:  0.3333 0.5773 0.0000   x coordinate   0.6667
     high-symmetry point:  0.5000 0.2887 0.0000   x coordinate   1.0000
     high-symmetry point:  0.0000 0.0000 0.0000   x coordinate   1.5773

     Plottable bands (eV) written to file graphene.bands.gnu
     Bands written to file graphene.bands

 **************************************************************************

                    xk=(   0.00000,   0.00000,   0.00000  )

     point group D_6h(6/mmm)
     there are 12 classes
     the character table:

       E     2C6   2C3   C2    3C2'  3C2'' i     2S3   2S6   s_h   3s_d  3s_v 
A_1g   1.00  1.00  1.00  1.00  1.00  1.00  1.00  1.00  1.00  1.00  1.00  1.00
A_2g   1.00  1.00  1.00  1.00 -1.00 -1.00  1.00  1.00  1.00  1.00 -1.00 -1.00
B_1g   1.00 -1.00  1.00 -1.00  1.00 -1.00  1.00 -1.00  1.00 -1.00  1.00 -1.00
B_2g   1.00 -1.00  1.00 -1.00 -1.00  1.00  1.00 -1.00  1.00 -1.00 -1.00  1.00
E_1g   2.00  1.00 -1.00 -2.00  0.00  0.00  2.00  1.00 -1.00 -2.00  0.00  0.00
E_2g   2.00 -1.00 -1.00  2.00  0.00  0.00  2.00 -1.00 -1.00  2.00  0.00  0.00
A_1u   1.00  1.00  1.00  1.00  1.00  1.00 -1.00 -1.00 -1.00 -1.00 -1.00 -1.00
A_2u   1.00  1.00  1.00  1.00 -1.00 -1.00 -1.00 -1.00 -1.00 -1.00  1.00  1.00
B_1u   1.00 -1.00  1.00 -1.00  1.00 -1.00 -1.00  1.00 -1.00  1.00 -1.00  1.00
B_2u   1.00 -1.00  1.00 -1.00 -1.00  1.00 -1.00  1.00 -1.00  1.00  1.00 -1.00
E_1u   2.00  1.00 -1.00 -2.00  0.00  0.00 -2.00 -1.00  1.00  2.00  0.00  0.00
E_2u   2.00 -1.00 -1.00  2.00  0.00  0.00 -2.00  1.00  1.00 -2.00  0.00  0.00

     the symmetry operations in each class and the name of the first element:

     E        1
                                                                 
     2C6      5    6
                                                                 
     2C3      7    8
                                                                 
     C2       2
                                                                 
     3C2'     4   12   11
                                                                 
     3C2''    3    9   10
                                                                 
     i       13
                                                                 
     2S3     17   18
                                                                 
     2S6     19   20
                                                                 
     s_h     14
                                                                 
     3s_d    16   24   23
                                                                 
     3s_v    15   21   22
                                                                 

     Band symmetry, D_6h(6/mmm) point group:

     e(  1 -  1) =    -22.54581  eV     1   --> A_1g           
     e(  2 -  2) =    -10.46787  eV     1   --> A_2u           
     e(  3 -  4) =     -4.70942  eV     2   --> E_2g           
     e(  5 -  5) =      0.94248  eV     1   --> A_1g           
     e(  6 -  6) =      1.63062  eV     1   --> A_2u           
     e(  7 -  7) =      1.75769  eV     1   --> A_1g           
     e(  8 -  8) =      2.76510  eV     1   --> A_2u           

 **************************************************************************

 **************************************************************************

                    xk=(   0.00667,   0.01155,   0.00000  )

     point group C_2v (mm2) 
     there are  4 classes
     the character table:

       E     C2    s_v   s_v' 
A_1    1.00  1.00  1.00  1.00
A_2    1.00  1.00 -1.00 -1.00
B_1    1.00 -1.00  1.00 -1.00
B_2    1.00 -1.00 -1.00  1.00

     the symmetry operations in each class and the name of the first element:

     E        1
                                                                 
     C2       2
                                                                 
     s_v      3
                                                                 
     s_v'     4
                                                                 

     Band symmetry, C_2v (mm2)  point group:

     e(  1 -  1) =    -22.54238  eV     1   --> A_1  D_1  S_1  
     e(  2 -  2) =    -10.46360  eV     1   --> B_2  D_4  S_4  
     e(  3 -  3) =     -4.72343  eV     1   --> B_1  D_3  S_3  
     e(  4 -  4) =     -4.71765  eV     1   --> A_1  D_1  S_1  
     e(  5 -  5) =      0.94722  eV     1   --> A_1  D_1  S_1  
     e(  6 -  6) =      1.63545  eV     1   --> B_2  D_4  S_4  
     e(  7 -  7) =      1.76254  eV     1   --> A_1  D_1  S_1  
     e(  8 -  8) =      2.76991  eV     1   --> B_2  D_4  S_4  

 **************************************************************************

 **************************************************************************

                    xk=(   0.01333,   0.02309,   0.00000  )

     Band symmetry, C_2v (mm2)  point group:

     e(  1 -  1) =    -22.53206  eV     1   --> A_1  D_1  S_1  
     e(  2 -  2) =    -10.45081  eV     1   --> B_2  D_4  S_4  
     e(  3 -  3) =     -4.76518  eV     1   --> B_1  D_3  S_3  
     e(  4 -  4) =     -4.74231  eV     1   --> A_1  D_1  S_1  
     e(  5 -  5) =      0.96143  eV     1   --> A_1  D_1  S_1  
     e(  6 -  6) =      1.64994  eV     1   --> B_2  D_4  S_4  
     e(  7 -  7) =      1.77708  eV     1   --> A_1  D_1  S_1  
     e(  8 -  8) =      2.78436  eV     1   --> B_2  D_4  S_4  

 **************************************************************************

 **************************************************************************

                    xk=(   0.02000,   0.03464,   0.00000  )

     Band symmetry, C_2v (mm2)  point group:

     e(  1 -  1) =    -22.51487  eV     1   --> A_1  D_1  S_1  
     e(  2 -  2) =    -10.42949  eV     1   --> B_2  D_4  S_4  
     e(  3 -  3) =     -4.83389  eV     1   --> B_1  D_3  S_3  
     e(  4 -  4) =     -4.78323  eV     1   --> A_1  D_1  S_1  
     e(  5 -  5) =      0.98512  eV     1   --> A_1  D_1  S_1  
     e(  6 -  6) =      1.67408  eV     1   --> B_2  D_4  S_4  
     e(  7 -  7) =      1.80132  eV     1   --> A_1  D_1  S_1  
     e(  8 -  8) =      2.80845  eV     1   --> B_2  D_4  S_4  

 **************************************************************************

 **************************************************************************

                    xk=(   0.02667,   0.04619,   0.00000  )

     Band symmetry, C_2v (mm2)  point group:

     e(  1 -  1) =    -22.49082  eV     1   --> A_1  D_1  S_1  
     e(  2 -  2) =    -10.39967  eV     1   --> B_2  D_4  S_4  
     e(  3 -  3) =     -4.92834  eV     1   --> B_1  D_3  S_3  
     e(  4 -  4) =     -4.84015  eV     1   --> A_1  D_1  S_1  
     e(  5 -  5) =      1.01830  eV     1   --> A_1  D_1  S_1  
     e(  6 -  6) =      1.70788  eV     1   --> B_2  D_4  S_4  
     e(  7 -  7) =      1.83526  eV     1   --> A_1  D_1  S_1  
     e(  8 -  8) =      2.84216  eV     1   --> B_2  D_4  S_4  

 **************************************************************************

 **************************************************************************

                    xk=(   0.03333,   0.05773,   0.00000  )

     Band symmetry, C_2v (mm2)  point group:

     e(  1 -  1) =    -22.45989  eV     1   --> A_1  D_1  S_1  
     e(  2 -  2) =    -10.36134  eV     1   --> B_2  D_4  S_4  
     e(  3 -  3) =     -5.04691  eV     1   --> B_1  D_3  S_3  
     e(  4 -  4) =     -4.91274  eV     1   --> A_1  D_1  S_1  
     e(  5 -  5) =      1.06096  eV     1   --> A_1  D_1  S_1  
     e(  6 -  6) =      1.75134  eV     1   --> B_2  D_4  S_4  
     e(  7 -  7) =      1.87890  eV     1   --> A_1  D_1  S_1  
     e(  8 -  8) =      2.88550  eV     1   --> B_2  D_4  S_4  

 **************************************************************************

 **************************************************************************

                    xk=(   0.04000,   0.06928,   0.00000  )

     Band symmetry, C_2v (mm2)  point group:

     e(  1 -  1) =    -22.42211  eV     1   --> A_1  D_1  S_1  
     e(  2 -  2) =    -10.31452  eV     1   --> B_2  D_4  S_4  
     e(  3 -  3) =     -5.18773  eV     1   --> B_1  D_3  S_3  
     e(  4 -  4) =     -5.00054  eV     1   --> A_1  D_1  S_1  
     e(  5 -  5) =      1.11311  eV     1   --> A_1  D_1  S_1  
     e(  6 -  6) =      1.80444  eV     1   --> B_2  D_4  S_4  
     e(  7 -  7) =      1.93224  eV     1   --> A_1  D_1  S_1  
     e(  8 -  8) =      2.93846  eV     1   --> B_2  D_4  S_4  

 **************************************************************************

 **************************************************************************

                    xk=(   0.04667,   0.08083,   0.00000  )

     Band symmetry, C_2v (mm2)  point group:

     e(  1 -  1) =    -22.37747  eV     1   --> A_1  D_1  S_1  
     e(  2 -  2) =    -10.25924  eV     1   --> B_2  D_4  S_4  
     e(  3 -  3) =     -5.34874  eV     1   --> B_1  D_3  S_3  
     e(  4 -  4) =     -5.10304  eV     1   --> A_1  D_1  S_1  
     e(  5 -  5) =      1.17476  eV     1   --> A_1  D_1  S_1  
     e(  6 -  6) =      1.86720  eV     1   --> B_2  D_4  S_4  
     e(  7 -  7) =      1.99528  eV     1   --> A_1  D_1  S_1  
     e(  8 -  8) =      3.00105  eV     1   --> B_2  D_4  S_4  

 **************************************************************************

 **************************************************************************

                    xk=(   0.05333,   0.09238,   0.00000  )

     Band symmetry, C_2v (mm2)  point group:

     e(  1 -  1) =    -22.32599  eV     1   --> A_1  D_1  S_1  
     e(  2 -  2) =    -10.19553  eV     1   --> B_2  D_4  S_4  
     e(  3 -  3) =     -5.52783  eV     1   --> B_1  D_3  S_3  
     e(  4 -  4) =     -5.21963  eV     1   --> A_1  D_1  S_1  
     e(  5 -  5) =      1.24591  eV     1   --> A_1  D_1  S_1  
     e(  6 -  6) =      1.93960  eV     1   --> B_2  D_4  S_4  
     e(  7 -  7) =      2.06802  eV     1   --> A_1  D_1  S_1  
     e(  8 -  8) =      3.07326  eV     1   --> B_2  D_4  S_4  

 **************************************************************************

 **************************************************************************

                    xk=(   0.06000,   0.10392,   0.00000  )

     Band symmetry, C_2v (mm2)  point group:

     e(  1 -  1) =    -22.26767  eV     1   --> A_1  D_1  S_1  
     e(  2 -  2) =    -10.12340  eV     1   --> B_2  D_4  S_4  
     e(  3 -  3) =     -5.72286  eV     1   --> B_1  D_3  S_3  
     e(  4 -  4) =     -5.34965  eV     1   --> A_1  D_1  S_1  
     e(  5 -  5) =      1.32656  eV     1   --> A_1  D_1  S_1  
     e(  6 -  6) =      2.02164  eV     1   --> B_2  D_4  S_4  
     e(  7 -  7) =      2.15047  eV     1   --> A_1  D_1  S_1  
     e(  8 -  8) =      3.15508  eV     1   --> B_2  D_4  S_4  

 **************************************************************************

 **************************************************************************

                    xk=(   0.06667,   0.11547,   0.00000  )

     Band symmetry, C_2v (mm2)  point group:

     e(  1 -  1) =    -22.20252  eV     1   --> A_1  D_1  S_1  
     e(  2 -  2) =    -10.04289  eV     1   --> B_2  D_4  S_4  
     e(  3 -  3) =     -5.93177  eV     1   --> B_1  D_3  S_3  
     e(  4 -  4) =     -5.49238  eV     1   --> A_1  D_1  S_1  
     e(  5 -  5) =      1.41673  eV     1   --> A_1  D_1  S_1  
     e(  6 -  6) =      2.11331  eV     1   --> B_2  D_4  S_4  
     e(  7 -  7) =      2.24262  eV     1   --> A_1  D_1  S_1  
     e(  8 -  8) =      3.24650  eV     1   --> B_2  D_4  S_4  

 **************************************************************************

 **************************************************************************

                    xk=(   0.07333,   0.12702,   0.00000  )

     Band symmetry, C_2v (mm2)  point group:

     e(  1 -  1) =    -22.13057  eV     1   --> A_1  D_1  S_1  
     e(  2 -  2) =     -9.95404  eV     1   --> B_2  D_4  S_4  
     e(  3 -  3) =     -6.15261  eV     1   --> B_1  D_3  S_3  
     e(  4 -  4) =     -5.64706  eV     1   --> A_1  D_1  S_1  
     e(  5 -  5) =      1.51641  eV     1   --> A_1  D_1  S_1  
     e(  6 -  6) =      2.21462  eV     1   --> B_2  D_4  S_4  
     e(  7 -  7) =      2.34448  eV     1   --> A_1  D_1  S_1  
     e(  8 -  8) =      3.34753  eV     1   --> B_2  D_4  S_4  

 **************************************************************************

 **************************************************************************

                    xk=(   0.08000,   0.13856,   0.00000  )

     Band symmetry, C_2v (mm2)  point group:

     e(  1 -  1) =    -22.05182  eV     1   --> A_1  D_1  S_1  
     e(  2 -  2) =     -9.85690  eV     1   --> B_2  D_4  S_4  
     e(  3 -  3) =     -6.38356  eV     1   --> B_1  D_3  S_3  
     e(  4 -  4) =     -5.81290  eV     1   --> A_1  D_1  S_1  
     e(  5 -  5) =      1.62560  eV     1   --> A_1  D_1  S_1  
     e(  6 -  6) =      2.32555  eV     1   --> B_2  D_4  S_4  
     e(  7 -  7) =      2.45605  eV     1   --> A_1  D_1  S_1  
     e(  8 -  8) =      3.45814  eV     1   --> B_2  D_4  S_4  

 **************************************************************************

 **************************************************************************

                    xk=(   0.08667,   0.15011,   0.00000  )

     Band symmetry, C_2v (mm2)  point group:

     e(  1 -  1) =    -21.96629  eV     1   --> A_1  D_1  S_1  
     e(  2 -  2) =     -9.75150  eV     1   --> B_2  D_4  S_4  
     e(  3 -  3) =     -6.62293  eV     1   --> B_1  D_3  S_3  
     e(  4 -  4) =     -5.98907  eV     1   --> A_1  D_1  S_1  
     e(  5 -  5) =      1.74429  eV     1   --> A_1  D_1  S_1  
     e(  6 -  6) =      2.44610  eV     1   --> B_2  D_4  S_4  
     e(  7 -  7) =      2.57732  eV     1   --> A_1  D_1  S_1  
     e(  8 -  8) =      3.57834  eV     1   --> B_2  D_4  S_4  

 **************************************************************************

 **************************************************************************

                    xk=(   0.09333,   0.16166,   0.00000  )

     Band symmetry, C_2v (mm2)  point group:

     e(  1 -  1) =    -21.87399  eV     1   --> A_1  D_1  S_1  
     e(  2 -  2) =     -9.63791  eV     1   --> B_2  D_4  S_4  
     e(  3 -  3) =     -6.86920  eV     1   --> B_1  D_3  S_3  
     e(  4 -  4) =     -6.17475  eV     1   --> A_1  D_1  S_1  
     e(  5 -  5) =      1.87250  eV     1   --> A_1  D_1  S_1  
     e(  6 -  6) =      2.57626  eV     1   --> B_2  D_4  S_4  
     e(  7 -  7) =      2.70831  eV     1   --> A_1  D_1  S_1  
     e(  8 -  8) =      3.70811  eV     1   --> B_2  D_4  S_4  

 **************************************************************************

 **************************************************************************

                    xk=(   0.10000,   0.17320,   0.00000  )

     Band symmetry, C_2v (mm2)  point group:

     e(  1 -  1) =    -21.77495  eV     1   --> A_1  D_1  S_1  
     e(  2 -  2) =     -9.51618  eV     1   --> B_2  D_4  S_4  
     e(  3 -  3) =     -7.12099  eV     1   --> B_1  D_3  S_3  
     e(  4 -  4) =     -6.36909  eV     1   --> A_1  D_1  S_1  
     e(  5 -  5) =      2.01021  eV     1   --> A_1  D_1  S_1  
     e(  6 -  6) =      2.71600  eV     1   --> B_2  D_4  S_4  
     e(  7 -  7) =      2.84900  eV     1   --> A_1  D_1  S_1  
     e(  8 -  8) =      3.84743  eV     1   --> B_2  D_4  S_4  

 **************************************************************************

 **************************************************************************

                    xk=(   0.10667,   0.18475,   0.00000  )

     Band symmetry, C_2v (mm2)  point group:

     e(  1 -  1) =    -21.66919  eV     1   --> A_1  D_1  S_1  
     e(  2 -  2) =     -9.38638  eV     1   --> B_2  D_4  S_4  
     e(  3 -  3) =     -7.37706  eV     1   --> B_1  D_3  S_3  
     e(  4 -  4) =     -6.57127  eV     1   --> A_1  D_1  S_1  
     e(  5 -  5) =      2.15741  eV     1   --> A_1  D_1  S_1  
     e(  6 -  6) =      2.86534  eV     1   --> B_2  D_4  S_4  
     e(  7 -  7) =      2.99941  eV     1   --> A_1  D_1  S_1  
     e(  8 -  8) =      3.99629  eV     1   --> B_2  D_4  S_4  

 **************************************************************************

 **************************************************************************

                    xk=(   0.11333,   0.19630,   0.00000  )

     Band symmetry, C_2v (mm2)  point group:

     e(  1 -  1) =    -21.55673  eV     1   --> A_1  D_1  S_1  
     e(  2 -  2) =     -9.24858  eV     1   --> B_2  D_4  S_4  
     e(  3 -  3) =     -7.63631  eV     1   --> B_1  D_3  S_3  
     e(  4 -  4) =     -6.78046  eV     1   --> A_1  D_1  S_1  
     e(  5 -  5) =      2.31410  eV     1   --> A_1  D_1  S_1  
     e(  6 -  6) =      3.02424  eV     1   --> B_2  D_4  S_4  
     e(  7 -  7) =      3.15952  eV     1   --> A_1  D_1  S_1  
     e(  8 -  8) =      4.15468  eV     1   --> B_2  D_4  S_4  

 **************************************************************************

 **************************************************************************

                    xk=(   0.12000,   0.20784,   0.00000  )

     Band symmetry, C_2v (mm2)  point group:

     e(  1 -  1) =    -21.43760  eV     1   --> A_1  D_1  S_1  
     e(  2 -  2) =     -9.10287  eV     1   --> B_2  D_4  S_4  
     e(  3 -  3) =     -7.89775  eV     1   --> B_1  D_3  S_3  
     e(  4 -  4) =     -6.99586  eV     1   --> A_1  D_1  S_1  
     e(  5 -  5) =      2.48027  eV     1   --> A_1  D_1  S_1  
     e(  6 -  6) =      3.19269  eV     1   --> B_2  D_4  S_4  
     e(  7 -  7) =      3.32934  eV     1   --> A_1  D_1  S_1  
     e(  8 -  8) =      4.32257  eV     1   --> B_2  D_4  S_4  

 **************************************************************************

 **************************************************************************

                    xk=(   0.12667,   0.21939,   0.00000  )

     Band symmetry, C_2v (mm2)  point group:

     e(  1 -  1) =    -21.31182  eV     1   --> A_1  D_1  S_1  
     e(  2 -  2) =     -8.94933  eV     1   --> B_2  D_4  S_4  
     e(  3 -  3) =     -8.16051  eV     1   --> B_1  D_3  S_3  
     e(  4 -  4) =     -7.21669  eV     1   --> A_1  D_1  S_1  
     e(  5 -  5) =      2.65590  eV     1   --> A_1  D_1  S_1  
     e(  6 -  6) =      3.37067  eV     1   --> B_2  D_4  S_4  
     e(  7 -  7) =      3.50887  eV     1   --> A_1  D_1  S_1  
     e(  8 -  8) =      4.49994  eV     1   --> B_2  D_4  S_4  

 **************************************************************************

 **************************************************************************

                    xk=(   0.13333,   0.23094,   0.00000  )

     Band symmetry, C_2v (mm2)  point group:

     e(  1 -  1) =    -21.17943  eV     1   --> A_1  D_1  S_1  
     e(  2 -  2) =     -8.78807  eV     1   --> B_2  D_4  S_4  
     e(  3 -  3) =     -8.42381  eV     1   --> B_1  D_3  S_3  
     e(  4 -  4) =     -7.44219  eV     1   --> A_1  D_1  S_1  
     e(  5 -  5) =      2.84098  eV     1   --> A_1  D_1  S_1  
     e(  6 -  6) =      3.55816  eV     1   --> B_2  D_4  S_4  
     e(  7 -  7) =      3.69810  eV     1   --> A_1  D_1  S_1  
     e(  8 -  8) =      4.68676  eV     1   --> B_2  D_4  S_4  

 **************************************************************************

 **************************************************************************

                    xk=(   0.14000,   0.24248,   0.00000  )

     Band symmetry, C_2v (mm2)  point group:

     e(  1 -  1) =    -21.04046  eV     1   --> A_1  D_1  S_1  
     e(  2 -  2) =     -8.68697  eV     1   --> B_1  D_3  S_3  
     e(  3 -  3) =     -8.61919  eV     1   --> B_2  D_4  S_4  
     e(  4 -  4) =     -7.67164  eV     1   --> A_1  D_1  S_1  
     e(  5 -  5) =      3.03550  eV     1   --> A_1  D_1  S_1  
     e(  6 -  6) =      3.75512  eV     1   --> B_2  D_4  S_4  
     e(  7 -  7) =      3.89704  eV     1   --> A_1  D_1  S_1  
     e(  8 -  8) =      4.88299  eV     1   --> B_2  D_4  S_4  

 **************************************************************************

 **************************************************************************

                    xk=(   0.14667,   0.25403,   0.00000  )

     Band symmetry, C_2v (mm2)  point group:

     e(  1 -  1) =    -20.89494  eV     1   --> A_1  D_1  S_1  
     e(  2 -  2) =     -8.94937  eV     1   --> B_1  D_3  S_3  
     e(  3 -  3) =     -8.44282  eV     1   --> B_2  D_4  S_4  
     e(  4 -  4) =     -7.90434  eV     1   --> A_1  D_1  S_1  
     e(  5 -  5) =      3.23944  eV     1   --> A_1  D_1  S_1  
     e(  6 -  6) =      3.96153  eV     1   --> B_2  D_4  S_4  
     e(  7 -  7) =      4.10568  eV     1   --> A_1  D_1  S_1  
     e(  8 -  8) =      5.08859  eV     1   --> B_2  D_4  S_4  

 **************************************************************************

 **************************************************************************

                    xk=(   0.15333,   0.26558,   0.00000  )

     Band symmetry, C_2v (mm2)  point group:

     e(  1 -  1) =    -20.74293  eV     1   --> A_1  D_1  S_1  
     e(  2 -  2) =     -9.21048  eV     1   --> B_1  D_3  S_3  
     e(  3 -  3) =     -8.25909  eV     1   --> B_2  D_4  S_4  
     e(  4 -  4) =     -8.13963  eV     1   --> A_1  D_1  S_1  
     e(  5 -  5) =      3.45277  eV     1   --> A_1  D_1  S_1  
     e(  6 -  6) =      4.17733  eV     1   --> B_2  D_4  S_4  
     e(  7 -  7) =      4.32403  eV     1   --> A_1  D_1  S_1  
     e(  8 -  8) =      5.30351  eV     1   --> B_2  D_4  S_4  

 **************************************************************************

 **************************************************************************

                    xk=(   0.16000,   0.27713,   0.00000  )

     Band symmetry, C_2v (mm2)  point group:

     e(  1 -  1) =    -20.58445  eV     1   --> A_1  D_1  S_1  
     e(  2 -  2) =     -9.46981  eV     1   --> B_1  D_3  S_3  
     e(  3 -  3) =     -8.37687  eV     1   --> A_1  D_1  S_1  
     e(  4 -  4) =     -8.06814  eV     1   --> B_2  D_4  S_4  
     e(  5 -  5) =      3.67548  eV     1   --> A_1  D_1  S_1  
     e(  6 -  6) =      4.40249  eV     1   --> B_2  D_4  S_4  
     e(  7 -  7) =      4.55208  eV     1   --> A_1  D_1  S_1  
     e(  8 -  8) =      5.52769  eV     1   --> B_2  D_4  S_4  

 **************************************************************************

 **************************************************************************

                    xk=(   0.16666,   0.28867,   0.00000  )

     Band symmetry, C_2v (mm2)  point group:

     e(  1 -  1) =    -20.41956  eV     1   --> A_1  D_1  S_1  
     e(  2 -  2) =     -9.72695  eV     1   --> B_1  D_3  S_3  
     e(  3 -  3) =     -8.61547  eV     1   --> A_1  D_1  S_1  
     e(  4 -  4) =     -7.87015  eV     1   --> B_2  D_4  S_4  
     e(  5 -  5) =      3.90754  eV     1   --> A_1  D_1  S_1  
     e(  6 -  6) =      4.63693  eV     1   --> B_2  D_4  S_4  
     e(  7 -  7) =      4.78983  eV     1   --> A_1  D_1  S_1  
     e(  8 -  8) =      5.58917  eV     1   --> A_2  D_2  S_2  

 **************************************************************************

 **************************************************************************

                    xk=(   0.17333,   0.30022,   0.00000  )

     Band symmetry, C_2v (mm2)  point group:

     e(  1 -  1) =    -20.24832  eV     1   --> A_1  D_1  S_1  
     e(  2 -  2) =     -9.98150  eV     1   --> B_1  D_3  S_3  
     e(  3 -  3) =     -8.85485  eV     1   --> A_1  D_1  S_1  
     e(  4 -  4) =     -7.66528  eV     1   --> B_2  D_4  S_4  
     e(  5 -  5) =      4.14891  eV     1   --> A_1  D_1  S_1  
     e(  6 -  6) =      4.88058  eV     1   --> B_2  D_4  S_4  
     e(  7 -  7) =      5.03727  eV     1   --> A_1  D_1  S_1  
     e(  8 -  8) =      5.24095  eV     1   --> A_2  D_2  S_2  

 **************************************************************************

 **************************************************************************

                    xk=(   0.18000,   0.31177,   0.00000  )

     Band symmetry, C_2v (mm2)  point group:

     e(  1 -  1) =    -20.07078  eV     1   --> A_1  D_1  S_1  
     e(  2 -  2) =    -10.23315  eV     1   --> B_1  D_3  S_3  
     e(  3 -  3) =     -9.09449  eV     1   --> A_1  D_1  S_1  
     e(  4 -  4) =     -7.45374  eV     1   --> B_2  D_4  S_4  
     e(  5 -  5) =      4.39956  eV     1   --> A_1  D_1  S_1  
     e(  6 -  6) =      4.89417  eV     1   --> A_2  D_2  S_2  
     e(  7 -  7) =      5.13333  eV     1   --> B_2  D_4  S_4  
     e(  8 -  8) =      5.29441  eV     1   --> A_1  D_1  S_1  

 **************************************************************************

 **************************************************************************

                    xk=(   0.18666,   0.32331,   0.00000  )

     Band symmetry, C_2v (mm2)  point group:

     e(  1 -  1) =    -19.88700  eV     1   --> A_1  D_1  S_1  
     e(  2 -  2) =    -10.48158  eV     1   --> B_1  D_3  S_3  
     e(  3 -  3) =     -9.33388  eV     1   --> A_1  D_1  S_1  
     e(  4 -  4) =     -7.23576  eV     1   --> B_2  D_4  S_4  
     e(  5 -  5) =      4.54945  eV     1   --> A_2  D_2  S_2  
     e(  6 -  6) =      4.65945  eV     1   --> A_1  D_1  S_1  
     e(  7 -  7) =      5.39506  eV     1   --> B_2  D_4  S_4  
     e(  8 -  8) =      5.56123  eV     1   --> A_1  D_1  S_1  

 **************************************************************************

 **************************************************************************

                    xk=(   0.19333,   0.33486,   0.00000  )

     Band symmetry, C_2v (mm2)  point group:

     e(  1 -  1) =    -19.69706  eV     1   --> A_1  D_1  S_1  
     e(  2 -  2) =    -10.72654  eV     1   --> B_1  D_3  S_3  
     e(  3 -  3) =     -9.57253  eV     1   --> A_1  D_1  S_1  
     e(  4 -  4) =     -7.01156  eV     1   --> B_2  D_4  S_4  
     e(  5 -  5) =      4.20734  eV     1   --> A_2  D_2  S_2  
     e(  6 -  6) =      4.92853  eV     1   --> A_1  D_1  S_1  
     e(  7 -  7) =      5.66560  eV     1   --> B_2  D_4  S_4  
     e(  8 -  8) =      5.83774  eV     1   --> A_1  D_1  S_1  

 **************************************************************************

 **************************************************************************

                    xk=(   0.20000,   0.34641,   0.00000  )

     Band symmetry, C_2v (mm2)  point group:

     e(  1 -  1) =    -19.50104  eV     1   --> A_1  D_1  S_1  
     e(  2 -  2) =    -10.96778  eV     1   --> B_1  D_3  S_3  
     e(  3 -  3) =     -9.81000  eV     1   --> A_1  D_1  S_1  
     e(  4 -  4) =     -6.78143  eV     1   --> B_2  D_4  S_4  
     e(  5 -  5) =      3.86837  eV     1   --> A_2  D_2  S_2  
     e(  6 -  6) =      5.20675  eV     1   --> A_1  D_1  S_1  
     e(  7 -  7) =      5.94472  eV     1   --> B_2  D_4  S_4  
     e(  8 -  8) =      6.12394  eV     1   --> A_1  D_1  S_1  

 **************************************************************************

 **************************************************************************

                    xk=(   0.20666,   0.35795,   0.00000  )

     Band symmetry, C_2v (mm2)  point group:

     e(  1 -  1) =    -19.29901  eV     1   --> A_1  D_1  S_1  
     e(  2 -  2) =    -11.20511  eV     1   --> B_1  D_3  S_3  
     e(  3 -  3) =    -10.04585  eV     1   --> A_1  D_1  S_1  
     e(  4 -  4) =     -6.54566  eV     1   --> B_2  D_4  S_4  
     e(  5 -  5) =      3.53300  eV     1   --> A_2  D_2  S_2  
     e(  6 -  6) =      5.49404  eV     1   --> A_1  D_1  S_1  
     e(  7 -  7) =      6.23211  eV     1   --> B_2  D_4  S_4  
     e(  8 -  8) =      6.41981  eV     1   --> A_1  D_1  S_1  

 **************************************************************************

 **************************************************************************

                    xk=(   0.21333,   0.36950,   0.00000  )

     Band symmetry, C_2v (mm2)  point group:

     e(  1 -  1) =    -19.09109  eV     1   --> A_1  D_1  S_1  
     e(  2 -  2) =    -11.43833  eV     1   --> B_1  D_3  S_3  
     e(  3 -  3) =    -10.27969  eV     1   --> A_1  D_1  S_1  
     e(  4 -  4) =     -6.30460  eV     1   --> B_2  D_4  S_4  
     e(  5 -  5) =      3.20166  eV     1   --> A_2  D_2  S_2  
     e(  6 -  6) =      5.79033  eV     1   --> A_1  D_1  S_1  
     e(  7 -  7) =      6.52736  eV     1   --> B_2  D_4  S_4  
     e(  8 -  8) =      6.72535  eV     1   --> A_1  D_1  S_1  

 **************************************************************************

 **************************************************************************

                    xk=(   0.22000,   0.38105,   0.00000  )

     Band symmetry, C_2v (mm2)  point group:

     e(  1 -  1) =    -18.87738  eV     1   --> A_1  D_1  S_1  
     e(  2 -  2) =    -11.66727  eV     1   --> B_1  D_3  S_3  
     e(  3 -  3) =    -10.51112  eV     1   --> A_1  D_1  S_1  
     e(  4 -  4) =     -6.05859  eV     1   --> B_2  D_4  S_4  
     e(  5 -  5) =      2.87473  eV     1   --> A_2  D_2  S_2  
     e(  6 -  6) =      6.09553  eV     1   --> A_1  D_1  S_1  
     e(  7 -  7) =      6.82984  eV     1   --> B_2  D_4  S_4  
     e(  8 -  8) =      7.04055  eV     1   --> A_1  D_1  S_1  

 **************************************************************************

 **************************************************************************

                    xk=(   0.22666,   0.39259,   0.00000  )

     Band symmetry, C_2v (mm2)  point group:

     e(  1 -  1) =    -18.65800  eV     1   --> A_1  D_1  S_1  
     e(  2 -  2) =    -11.89178  eV     1   --> B_1  D_3  S_3  
     e(  3 -  3) =    -10.73977  eV     1   --> A_1  D_1  S_1  
     e(  4 -  4) =     -5.80806  eV     1   --> B_2  D_4  S_4  
     e(  5 -  5) =      2.55259  eV     1   --> A_2  D_2  S_2  
     e(  6 -  6) =      6.40952  eV     1   --> A_1  D_1  S_1  
     e(  7 -  7) =      7.13866  eV     1   --> B_2  D_4  S_4  
     e(  8 -  8) =      7.36541  eV     1   --> A_1  D_1  S_1  

 **************************************************************************

 **************************************************************************

                    xk=(   0.23333,   0.40414,   0.00000  )

     Band symmetry, C_2v (mm2)  point group:

     e(  1 -  1) =    -18.43309  eV     1   --> A_1  D_1  S_1  
     e(  2 -  2) =    -12.11174  eV     1   --> B_1  D_3  S_3  
     e(  3 -  3) =    -10.96528  eV     1   --> A_1  D_1  S_1  
     e(  4 -  4) =     -5.55347  eV     1   --> B_2  D_4  S_4  
     e(  5 -  5) =      2.23556  eV     1   --> A_2  D_2  S_2  
     e(  6 -  6) =      6.73218  eV     1   --> A_1  D_1  S_1  
     e(  7 -  7) =      7.45241  eV     1   --> B_2  D_4  S_4  
     e(  8 -  8) =      7.69991  eV     1   --> A_1  D_1  S_1  

 **************************************************************************

 **************************************************************************

                    xk=(   0.24000,   0.41569,   0.00000  )

     Band symmetry, C_2v (mm2)  point group:

     e(  1 -  1) =    -18.20283  eV     1   --> A_1  D_1  S_1  
     e(  2 -  2) =    -12.32702  eV     1   --> B_1  D_3  S_3  
     e(  3 -  3) =    -11.18730  eV     1   --> A_1  D_1  S_1  
     e(  4 -  4) =     -5.29531  eV     1   --> B_2  D_4  S_4  
     e(  5 -  5) =      1.92394  eV     1   --> A_2  D_2  S_2  
     e(  6 -  6) =      7.06333  eV     1   --> A_1  D_1  S_1  
     e(  7 -  7) =      7.76890  eV     1   --> B_2  D_4  S_4  
     e(  8 -  8) =      8.04405  eV     1   --> A_1  D_1  S_1  

 **************************************************************************

 **************************************************************************

                    xk=(   0.24666,   0.42723,   0.00000  )

     Band symmetry, C_2v (mm2)  point group:

     e(  1 -  1) =    -17.96741  eV     1   --> A_1  D_1  S_1  
     e(  2 -  2) =    -12.53752  eV     1   --> B_1  D_3  S_3  
     e(  3 -  3) =    -11.40547  eV     1   --> A_1  D_1  S_1  
     e(  4 -  4) =     -5.03415  eV     1   --> B_2  D_4  S_4  
     e(  5 -  5) =      1.61800  eV     1   --> A_2  D_2  S_2  
     e(  6 -  6) =      7.40279  eV     1   --> A_1  D_1  S_1  
     e(  7 -  7) =      8.08441  eV     1   --> B_2  D_4  S_4  
     e(  8 -  8) =      8.39779  eV     1   --> A_1  D_1  S_1  

 **************************************************************************

 **************************************************************************

                    xk=(   0.25333,   0.43878,   0.00000  )

     Band symmetry, C_2v (mm2)  point group:

     e(  1 -  1) =    -17.72704  eV     1   --> A_1  D_1  S_1  
     e(  2 -  2) =    -12.74314  eV     1   --> B_1  D_3  S_3  
     e(  3 -  3) =    -11.61944  eV     1   --> A_1  D_1  S_1  
     e(  4 -  4) =     -4.77061  eV     1   --> B_2  D_4  S_4  
     e(  5 -  5) =      1.31800  eV     1   --> A_2  D_2  S_2  
     e(  6 -  6) =      7.75030  eV     1   --> A_1  D_1  S_1  
     e(  7 -  7) =      8.39259  eV     1   --> B_2  D_4  S_4  
     e(  8 -  8) =      8.76114  eV     1   --> A_1  D_1  S_1  

 **************************************************************************

 **************************************************************************

                    xk=(   0.26000,   0.45033,   0.00000  )

     Band symmetry, C_2v (mm2)  point group:

     e(  1 -  1) =    -17.48201  eV     1   --> A_1  D_1  S_1  
     e(  2 -  2) =    -12.94380  eV     1   --> B_1  D_3  S_3  
     e(  3 -  3) =    -11.82882  eV     1   --> A_1  D_1  S_1  
     e(  4 -  4) =     -4.50539  eV     1   --> B_2  D_4  S_4  
     e(  5 -  5) =      1.02417  eV     1   --> A_2  D_2  S_2  
     e(  6 -  6) =      8.10554  eV     1   --> A_1  D_1  S_1  
     e(  7 -  7) =      8.68233  eV     1   --> B_2  D_4  S_4  
     e(  8 -  8) =      9.13405  eV     1   --> A_1  D_1  S_1  

 **************************************************************************

 **************************************************************************

                    xk=(   0.26666,   0.46188,   0.00000  )

     Band symmetry, C_2v (mm2)  point group:

     e(  1 -  1) =    -17.23265  eV     1   --> A_1  D_1  S_1  
     e(  2 -  2) =    -13.13942  eV     1   --> B_1  D_3  S_3  
     e(  3 -  3) =    -12.03321  eV     1   --> A_1  D_1  S_1  
     e(  4 -  4) =     -4.23925  eV     1   --> B_2  D_4  S_4  
     e(  5 -  5) =      0.73673  eV     1   --> A_2  D_2  S_2  
     e(  6 -  6) =      8.46808  eV     1   --> A_1  D_1  S_1  
     e(  7 -  7) =      8.93548  eV     1   --> B_2  D_4  S_4  
     e(  8 -  8) =      9.51650  eV     1   --> A_1  D_1  S_1  

 **************************************************************************

 **************************************************************************

                    xk=(   0.27333,   0.47342,   0.00000  )

     Band symmetry, C_2v (mm2)  point group:

     e(  1 -  1) =    -16.97938  eV     1   --> A_1  D_1  S_1  
     e(  2 -  2) =    -13.32993  eV     1   --> B_1  D_3  S_3  
     e(  3 -  3) =    -12.23213  eV     1   --> A_1  D_1  S_1  
     e(  4 -  4) =     -3.97302  eV     1   --> B_2  D_4  S_4  
     e(  5 -  5) =      0.45587  eV     1   --> A_2  D_2  S_2  
     e(  6 -  6) =      8.83739  eV     1   --> A_1  D_1  S_1  
     e(  7 -  7) =      9.12846  eV     1   --> B_2  D_4  S_4  
     e(  8 -  8) =      9.90844  eV     1   --> A_1  D_1  S_1  

 **************************************************************************

 **************************************************************************

                    xk=(   0.28000,   0.48497,   0.00000  )

     Band symmetry, C_2v (mm2)  point group:

     e(  1 -  1) =    -16.72276  eV     1   --> A_1  D_1  S_1  
     e(  2 -  2) =    -13.51528  eV     1   --> B_1  D_3  S_3  
     e(  3 -  3) =    -12.42501  eV     1   --> A_1  D_1  S_1  
     e(  4 -  4) =     -3.70763  eV     1   --> B_2  D_4  S_4  
     e(  5 -  5) =      0.18178  eV     1   --> A_2  D_2  S_2  
     e(  6 -  6) =      9.21273  eV     1   --> A_1  D_1  S_1  
     e(  7 -  7) =      9.24499  eV     1   --> B_2  D_4  S_4  
     e(  8 -  8) =     10.30982  eV     1   --> A_1  D_1  S_1  

 **************************************************************************

 **************************************************************************

                    xk=(   0.28666,   0.49652,   0.00000  )

     Band symmetry, C_2v (mm2)  point group:

     e(  1 -  1) =    -16.46352  eV     1   --> A_1  D_1  S_1  
     e(  2 -  2) =    -13.69541  eV     1   --> B_1  D_3  S_3  
     e(  3 -  3) =    -12.61112  eV     1   --> A_1  D_1  S_1  
     e(  4 -  4) =     -3.44407  eV     1   --> B_2  D_4  S_4  
     e(  5 -  5) =     -0.08540  eV     1   --> A_2  D_2  S_2  
     e(  6 -  6) =      9.29038  eV     1   --> B_2  D_4  S_4  
     e(  7 -  7) =      9.59309  eV     1   --> A_1  D_1  S_1  
     e(  8 -  8) =     10.72055  eV     1   --> A_1  D_1  S_1  

 **************************************************************************

 **************************************************************************

                    xk=(   0.29333,   0.50806,   0.00000  )

     Band symmetry, C_2v (mm2)  point group:

     e(  1 -  1) =    -16.20270  eV     1   --> A_1  D_1  S_1  
     e(  2 -  2) =    -13.87027  eV     1   --> B_1  D_3  S_3  
     e(  3 -  3) =    -12.78948  eV     1   --> A_1  D_1  S_1  
     e(  4 -  4) =     -3.18345  eV     1   --> B_2  D_4  S_4  
     e(  5 -  5) =     -0.34549  eV     1   --> A_2  D_2  S_2  
     e(  6 -  6) =      9.28593  eV     1   --> B_2  D_4  S_4  
     e(  7 -  7) =      9.97707  eV     1   --> A_1  D_1  S_1  
     e(  8 -  8) =     11.14049  eV     1   --> A_1  D_1  S_1  

 **************************************************************************

 **************************************************************************

                    xk=(   0.30000,   0.51961,   0.00000  )

     Band symmetry, C_2v (mm2)  point group:

     e(  1 -  1) =    -15.94182  eV     1   --> A_1  D_1  S_1  
     e(  2 -  2) =    -14.03982  eV     1   --> B_1  D_3  S_3  
     e(  3 -  3) =    -12.95862  eV     1   --> A_1  D_1  S_1  
     e(  4 -  4) =     -2.92693  eV     1   --> B_2  D_4  S_4  
     e(  5 -  5) =     -0.59836  eV     1   --> A_2  D_2  S_2  
     e(  6 -  6) =      9.25378  eV     1   --> B_2  D_4  S_4  
     e(  7 -  7) =     10.36263  eV     1   --> A_1  D_1  S_1  
     e(  8 -  8) =     11.56943  eV     1   --> A_1  D_1  S_1  

 **************************************************************************

 **************************************************************************

                    xk=(   0.30666,   0.53116,   0.00000  )

     Band symmetry, C_2v (mm2)  point group:

     e(  1 -  1) =    -15.68326  eV     1   --> A_1  D_1  S_1  
     e(  2 -  2) =    -14.20403  eV     1   --> B_1  D_3  S_3  
     e(  3 -  3) =    -13.11628  eV     1   --> A_1  D_1  S_1  
     e(  4 -  4) =     -2.67573  eV     1   --> B_2  D_4  S_4  
     e(  5 -  5) =     -0.84388  eV     1   --> A_2  D_2  S_2  
     e(  6 -  6) =      9.21036  eV     1   --> B_2  D_4  S_4  
     e(  7 -  7) =     10.74669  eV     1   --> A_1  D_1  S_1  
     e(  8 -  8) =     12.00678  eV     1   --> A_1  D_1  S_1  

 **************************************************************************

 **************************************************************************

                    xk=(   0.31333,   0.54270,   0.00000  )

     Band symmetry, C_2v (mm2)  point group:

     e(  1 -  1) =    -15.43091  eV     1   --> A_1  D_1  S_1  
     e(  2 -  2) =    -14.36285  eV     1   --> B_1  D_3  S_3  
     e(  3 -  3) =    -13.25872  eV     1   --> A_1  D_1  S_1  
     e(  4 -  4) =     -2.43116  eV     1   --> B_2  D_4  S_4  
     e(  5 -  5) =     -1.08192  eV     1   --> A_2  D_2  S_2  
     e(  6 -  6) =      9.16672  eV     1   --> B_2  D_4  S_4  
     e(  7 -  7) =     11.12444  eV     1   --> A_1  D_1  S_1  
     e(  8 -  8) =     12.44827  eV     1   --> A_1  D_1  S_1  

 **************************************************************************

 **************************************************************************

                    xk=(   0.32000,   0.55425,   0.00000  )

     Band symmetry, C_2v (mm2)  point group:

     e(  1 -  1) =    -15.19151  eV     1   --> A_1  D_1  S_1  
     e(  2 -  2) =    -14.51626  eV     1   --> B_1  D_3  S_3  
     e(  3 -  3) =    -13.37937  eV     1   --> A_1  D_1  S_1  
     e(  4 -  4) =     -2.19453  eV     1   --> B_2  D_4  S_4  
     e(  5 -  5) =     -1.31239  eV     1   --> A_2  D_2  S_2  
     e(  6 -  6) =      9.13022  eV     1   --> B_2  D_4  S_4  
     e(  7 -  7) =     11.48758  eV     1   --> A_1  D_1  S_1  
     e(  8 -  8) =     12.35187  eV     1   --> B_1  D_3  S_3  

 **************************************************************************

 **************************************************************************

                    xk=(   0.32666,   0.56580,   0.00000  )

     Band symmetry, C_2v (mm2)  point group:

     e(  1 -  1) =    -14.97699  eV     1   --> A_1  D_1  S_1  
     e(  2 -  2) =    -14.66423  eV     1   --> B_1  D_3  S_3  
     e(  3 -  3) =    -13.46653  eV     1   --> A_1  D_1  S_1  
     e(  4 -  4) =     -1.96718  eV     1   --> B_2  D_4  S_4  
     e(  5 -  5) =     -1.53517  eV     1   --> A_2  D_2  S_2  
     e(  6 -  6) =      9.10587  eV     1   --> B_2  D_4  S_4  
     e(  7 -  7) =     11.81904  eV     1   --> A_1  D_1  S_1  
     e(  8 -  8) =     12.21041  eV     1   --> B_1  D_3  S_3  

 **************************************************************************

 **************************************************************************

                    xk=(   0.33333,   0.57734,   0.00000  )

     Band symmetry, C_2v (mm2)  point group:

     e(  1 -  1) =    -14.80688  eV     1   --> A_1  D_1  S_1  
     e(  2 -  2) =    -14.80674  eV     1   --> B_1  D_3  S_3  
     e(  3 -  3) =    -13.50095  eV     1   --> A_1  D_1  S_1  
     e(  4 -  4) =     -1.75039  eV     1   --> B_2  D_4  S_4  
     e(  5 -  5) =     -1.75018  eV     1   --> A_2  D_2  S_2  
     e(  6 -  6) =      9.09716  eV     1   --> B_2  D_4  S_4  
     e(  7 -  7) =     12.06284  eV     1   --> A_1  D_1  S_1  
     e(  8 -  8) =     12.06299  eV     1   --> B_1  D_3  S_3  

 **************************************************************************

 **************************************************************************

                    xk=(   0.33889,   0.56772,   0.00000  )

     zone border point and non-symmorphic group 
     symmetry decomposition not available

 **************************************************************************

 **************************************************************************

                    xk=(   0.34444,   0.55810,   0.00000  )

     zone border point and non-symmorphic group 
     symmetry decomposition not available

 **************************************************************************

 **************************************************************************

                    xk=(   0.35000,   0.54848,   0.00000  )

     zone border point and non-symmorphic group 
     symmetry decomposition not available

 **************************************************************************

 **************************************************************************

                    xk=(   0.35555,   0.53886,   0.00000  )

     zone border point and non-symmorphic group 
     symmetry decomposition not available

 **************************************************************************

 **************************************************************************

                    xk=(   0.36111,   0.52923,   0.00000  )

     zone border point and non-symmorphic group 
     symmetry decomposition not available

 **************************************************************************

 **************************************************************************

                    xk=(   0.36666,   0.51961,   0.00000  )

     zone border point and non-symmorphic group 
     symmetry decomposition not available

 **************************************************************************

 **************************************************************************

                    xk=(   0.37222,   0.50999,   0.00000  )

     zone border point and non-symmorphic group 
     symmetry decomposition not available

 **************************************************************************

 **************************************************************************

                    xk=(   0.37778,   0.50037,   0.00000  )

     zone border point and non-symmorphic group 
     symmetry decomposition not available

 **************************************************************************

 **************************************************************************

                    xk=(   0.38333,   0.49074,   0.00000  )

     zone border point and non-symmorphic group 
     symmetry decomposition not available

 **************************************************************************

 **************************************************************************

                    xk=(   0.38889,   0.48112,   0.00000  )

     zone border point and non-symmorphic group 
     symmetry decomposition not available

 **************************************************************************

 **************************************************************************

                    xk=(   0.39444,   0.47150,   0.00000  )

     zone border point and non-symmorphic group 
     symmetry decomposition not available

 **************************************************************************

 **************************************************************************

                    xk=(   0.40000,   0.46188,   0.00000  )

     zone border point and non-symmorphic group 
     symmetry decomposition not available

 **************************************************************************

 **************************************************************************

                    xk=(   0.40555,   0.45225,   0.00000  )

     zone border point and non-symmorphic group 
     symmetry decomposition not available

 **************************************************************************

 **************************************************************************

                    xk=(   0.41111,   0.44263,   0.00000  )

     zone border point and non-symmorphic group 
     symmetry decomposition not available

 **************************************************************************

 **************************************************************************

                    xk=(   0.41666,   0.43301,   0.00000  )

     zone border point and non-symmorphic group 
     symmetry decomposition not available

 **************************************************************************

 **************************************************************************

                    xk=(   0.42222,   0.42339,   0.00000  )

     zone border point and non-symmorphic group 
     symmetry decomposition not available

 **************************************************************************

 **************************************************************************

                    xk=(   0.42778,   0.41377,   0.00000  )

     zone border point and non-symmorphic group 
     symmetry decomposition not available

 **************************************************************************

 **************************************************************************

                    xk=(   0.43333,   0.40414,   0.00000  )

     zone border point and non-symmorphic group 
     symmetry decomposition not available

 **************************************************************************

 **************************************************************************

                    xk=(   0.43889,   0.39452,   0.00000  )

     zone border point and non-symmorphic group 
     symmetry decomposition not available

 **************************************************************************

 **************************************************************************

                    xk=(   0.44444,   0.38490,   0.00000  )

     zone border point and non-symmorphic group 
     symmetry decomposition not available

 **************************************************************************

 **************************************************************************

                    xk=(   0.45000,   0.37528,   0.00000  )

     zone border point and non-symmorphic group 
     symmetry decomposition not available

 **************************************************************************

 **************************************************************************

                    xk=(   0.45555,   0.36565,   0.00000  )

     zone border point and non-symmorphic group 
     symmetry decomposition not available

 **************************************************************************

 **************************************************************************

                    xk=(   0.46111,   0.35603,   0.00000  )

     zone border point and non-symmorphic group 
     symmetry decomposition not available

 **************************************************************************

 **************************************************************************

                    xk=(   0.46667,   0.34641,   0.00000  )

     zone border point and non-symmorphic group 
     symmetry decomposition not available

 **************************************************************************

 **************************************************************************

                    xk=(   0.47222,   0.33679,   0.00000  )

     zone border point and non-symmorphic group 
     symmetry decomposition not available

 **************************************************************************

 **************************************************************************

                    xk=(   0.47778,   0.32716,   0.00000  )

     zone border point and non-symmorphic group 
     symmetry decomposition not available

 **************************************************************************

 **************************************************************************

                    xk=(   0.48333,   0.31754,   0.00000  )

     zone border point and non-symmorphic group 
     symmetry decomposition not available

 **************************************************************************

 **************************************************************************

                    xk=(   0.48889,   0.30792,   0.00000  )

     zone border point and non-symmorphic group 
     symmetry decomposition not available

 **************************************************************************

 **************************************************************************

                    xk=(   0.49444,   0.29830,   0.00000  )

     zone border point and non-symmorphic group 
     symmetry decomposition not available

 **************************************************************************

 **************************************************************************

                    xk=(   0.50000,   0.28868,   0.00000  )

     zone border point and non-symmorphic group 
     symmetry decomposition not available

 **************************************************************************

 **************************************************************************

                    xk=(   0.49000,   0.28290,   0.00000  )

     point group C_2v (mm2) 
     there are  4 classes
     the character table:

       E     C2    s_v   s_v' 
A_1    1.00  1.00  1.00  1.00
A_2    1.00  1.00 -1.00 -1.00
B_1    1.00 -1.00  1.00 -1.00
B_2    1.00 -1.00 -1.00  1.00

     the symmetry operations in each class and the name of the first element:

     E        1
                                                                 
     C2       2
                                                                 
     s_v      3
                                                                 
     s_v'     4
                                                                 

     Band symmetry, C_2v (mm2)  point group:

     e(  1 -  1) =    -16.65126  eV     1   --> A_1  D_1  S_1  
     e(  2 -  2) =    -15.93976  eV     1   --> A_1  D_1  S_1  
     e(  3 -  3) =     -8.60744  eV     1   --> B_1  D_3  S_3  
     e(  4 -  4) =     -4.44843  eV     1   --> B_2  D_4  S_4  
     e(  5 -  5) =      0.00901  eV     1   --> B_2  D_4  S_4  
     e(  6 -  6) =      7.22079  eV     1   --> A_1  D_1  S_1  
     e(  7 -  7) =      9.42159  eV     1   --> A_1  D_1  S_1  
     e(  8 -  8) =     10.11862  eV     1   --> A_1  D_1  S_1  

 **************************************************************************

 **************************************************************************

                    xk=(   0.48000,   0.27713,   0.00000  )

     Band symmetry, C_2v (mm2)  point group:

     e(  1 -  1) =    -16.83654  eV     1   --> A_1  D_1  S_1  
     e(  2 -  2) =    -15.74300  eV     1   --> A_1  D_1  S_1  
     e(  3 -  3) =     -8.59940  eV     1   --> B_1  D_3  S_3  
     e(  4 -  4) =     -4.50341  eV     1   --> B_2  D_4  S_4  
     e(  5 -  5) =      0.07743  eV     1   --> B_2  D_4  S_4  
     e(  6 -  6) =      7.22229  eV     1   --> A_1  D_1  S_1  
     e(  7 -  7) =      9.09148  eV     1   --> A_1  D_1  S_1  
     e(  8 -  8) =      9.92602  eV     1   --> B_2  D_4  S_4  

 **************************************************************************

 **************************************************************************

                    xk=(   0.47000,   0.27135,   0.00000  )

     Band symmetry, C_2v (mm2)  point group:

     e(  1 -  1) =    -17.04573  eV     1   --> A_1  D_1  S_1  
     e(  2 -  2) =    -15.51468  eV     1   --> A_1  D_1  S_1  
     e(  3 -  3) =     -8.58601  eV     1   --> B_1  D_3  S_3  
     e(  4 -  4) =     -4.59140  eV     1   --> B_2  D_4  S_4  
     e(  5 -  5) =      0.18777  eV     1   --> B_2  D_4  S_4  
     e(  6 -  6) =      7.22447  eV     1   --> A_1  D_1  S_1  
     e(  7 -  7) =      8.76605  eV     1   --> A_1  D_1  S_1  
     e(  8 -  8) =      9.59046  eV     1   --> B_2  D_4  S_4  

 **************************************************************************

 **************************************************************************

                    xk=(   0.46000,   0.26558,   0.00000  )

     Band symmetry, C_2v (mm2)  point group:

     e(  1 -  1) =    -17.26049  eV     1   --> A_1  D_1  S_1  
     e(  2 -  2) =    -15.27318  eV     1   --> A_1  D_1  S_1  
     e(  3 -  3) =     -8.56729  eV     1   --> B_1  D_3  S_3  
     e(  4 -  4) =     -4.70782  eV     1   --> B_2  D_4  S_4  
     e(  5 -  5) =      0.33542  eV     1   --> B_2  D_4  S_4  
     e(  6 -  6) =      7.22665  eV     1   --> A_1  D_1  S_1  
     e(  7 -  7) =      8.44770  eV     1   --> A_1  D_1  S_1  
     e(  8 -  8) =      9.26079  eV     1   --> B_2  D_4  S_4  

 **************************************************************************

 **************************************************************************

                    xk=(   0.45000,   0.25981,   0.00000  )

     Band symmetry, C_2v (mm2)  point group:

     e(  1 -  1) =    -17.47540  eV     1   --> A_1  D_1  S_1  
     e(  2 -  2) =    -15.02396  eV     1   --> A_1  D_1  S_1  
     e(  3 -  3) =     -8.54325  eV     1   --> B_1  D_3  S_3  
     e(  4 -  4) =     -4.84762  eV     1   --> B_2  D_4  S_4  
     e(  5 -  5) =      0.51524  eV     1   --> B_2  D_4  S_4  
     e(  6 -  6) =      7.22722  eV     1   --> A_1  D_1  S_1  
     e(  7 -  7) =      8.13846  eV     1   --> A_1  D_1  S_1  
     e(  8 -  8) =      8.93736  eV     1   --> B_2  D_4  S_4  

 **************************************************************************

 **************************************************************************

                    xk=(   0.44000,   0.25403,   0.00000  )

     Band symmetry, C_2v (mm2)  point group:

     e(  1 -  1) =    -17.68834  eV     1   --> A_1  D_1  S_1  
     e(  2 -  2) =    -14.76916  eV     1   --> A_1  D_1  S_1  
     e(  3 -  3) =     -8.51393  eV     1   --> B_1  D_3  S_3  
     e(  4 -  4) =     -5.00590  eV     1   --> B_2  D_4  S_4  
     e(  5 -  5) =      0.72224  eV     1   --> B_2  D_4  S_4  
     e(  6 -  6) =      7.22157  eV     1   --> A_1  D_1  S_1  
     e(  7 -  7) =      7.84306  eV     1   --> A_1  D_1  S_1  
     e(  8 -  8) =      8.62039  eV     1   --> B_2  D_4  S_4  

 **************************************************************************

 **************************************************************************

                    xk=(   0.43000,   0.24826,   0.00000  )

     Band symmetry, C_2v (mm2)  point group:

     e(  1 -  1) =    -17.89834  eV     1   --> A_1  D_1  S_1  
     e(  2 -  2) =    -14.50984  eV     1   --> A_1  D_1  S_1  
     e(  3 -  3) =     -8.47934  eV     1   --> B_1  D_3  S_3  
     e(  4 -  4) =     -5.17831  eV     1   --> B_2  D_4  S_4  
     e(  5 -  5) =      0.95195  eV     1   --> B_2  D_4  S_4  
     e(  6 -  6) =      7.19221  eV     1   --> A_1  D_1  S_1  
     e(  7 -  7) =      7.57892  eV     1   --> A_1  D_1  S_1  
     e(  8 -  8) =      8.31002  eV     1   --> B_2  D_4  S_4  

 **************************************************************************

 **************************************************************************

                    xk=(   0.42000,   0.24249,   0.00000  )

     Band symmetry, C_2v (mm2)  point group:

     e(  1 -  1) =    -18.10486  eV     1   --> A_1  D_1  S_1  
     e(  2 -  2) =    -14.24659  eV     1   --> A_1  D_1  S_1  
     e(  3 -  3) =     -8.43955  eV     1   --> B_1  D_3  S_3  
     e(  4 -  4) =     -5.36115  eV     1   --> B_2  D_4  S_4  
     e(  5 -  5) =      1.20053  eV     1   --> B_2  D_4  S_4  
     e(  6 -  6) =      7.07634  eV     1   --> A_1  D_1  S_1  
     e(  7 -  7) =      7.40861  eV     1   --> A_1  D_1  S_1  
     e(  8 -  8) =      8.00637  eV     1   --> B_2  D_4  S_4  

 **************************************************************************

 **************************************************************************

                    xk=(   0.41000,   0.23671,   0.00000  )

     Band symmetry, C_2v (mm2)  point group:

     e(  1 -  1) =    -18.30758  eV     1   --> A_1  D_1  S_1  
     e(  2 -  2) =    -13.97982  eV     1   --> A_1  D_1  S_1  
     e(  3 -  3) =     -8.39458  eV     1   --> B_1  D_3  S_3  
     e(  4 -  4) =     -5.55138  eV     1   --> B_2  D_4  S_4  
     e(  5 -  5) =      1.46476  eV     1   --> B_2  D_4  S_4  
     e(  6 -  6) =      6.84887  eV     1   --> A_1  D_1  S_1  
     e(  7 -  7) =      7.35624  eV     1   --> A_1  D_1  S_1  
     e(  8 -  8) =      7.70954  eV     1   --> B_2  D_4  S_4  

 **************************************************************************

 **************************************************************************

                    xk=(   0.40000,   0.23094,   0.00000  )

     Band symmetry, C_2v (mm2)  point group:

     e(  1 -  1) =    -18.50629  eV     1   --> A_1  D_1  S_1  
     e(  2 -  2) =    -13.70983  eV     1   --> A_1  D_1  S_1  
     e(  3 -  3) =     -8.34450  eV     1   --> B_1  D_3  S_3  
     e(  4 -  4) =     -5.74655  eV     1   --> B_2  D_4  S_4  
     e(  5 -  5) =      1.74200  eV     1   --> B_2  D_4  S_4  
     e(  6 -  6) =      6.58557  eV     1   --> A_1  D_1  S_1  
     e(  7 -  7) =      7.34111  eV     1   --> A_1  D_1  S_1  
     e(  8 -  8) =      7.41963  eV     1   --> B_2  D_4  S_4  

 **************************************************************************

 **************************************************************************

                    xk=(   0.39000,   0.22517,   0.00000  )

     Band symmetry, C_2v (mm2)  point group:

     e(  1 -  1) =    -18.70082  eV     1   --> A_1  D_1  S_1  
     e(  2 -  2) =    -13.43689  eV     1   --> A_1  D_1  S_1  
     e(  3 -  3) =     -8.28937  eV     1   --> B_1  D_3  S_3  
     e(  4 -  4) =     -5.94469  eV     1   --> B_2  D_4  S_4  
     e(  5 -  5) =      2.03002  eV     1   --> B_2  D_4  S_4  
     e(  6 -  6) =      6.31729  eV     1   --> A_1  D_1  S_1  
     e(  7 -  7) =      7.13672  eV     1   --> B_2  D_4  S_4  
     e(  8 -  8) =      7.25622  eV     1   --> A_1  D_1  S_1  

 **************************************************************************

 **************************************************************************

                    xk=(   0.38000,   0.21939,   0.00000  )

     Band symmetry, C_2v (mm2)  point group:

     e(  1 -  1) =    -18.89107  eV     1   --> A_1  D_1  S_1  
     e(  2 -  2) =    -13.16123  eV     1   --> A_1  D_1  S_1  
     e(  3 -  3) =     -8.22926  eV     1   --> B_1  D_3  S_3  
     e(  4 -  4) =     -6.14422  eV     1   --> B_2  D_4  S_4  
     e(  5 -  5) =      2.32698  eV     1   --> B_2  D_4  S_4  
     e(  6 -  6) =      6.05144  eV     1   --> A_1  D_1  S_1  
     e(  7 -  7) =      6.86091  eV     1   --> B_2  D_4  S_4  
     e(  8 -  8) =      7.00175  eV     1   --> A_1  D_1  S_1  

 **************************************************************************

 **************************************************************************

                    xk=(   0.37000,   0.21362,   0.00000  )

     Band symmetry, C_2v (mm2)  point group:

     e(  1 -  1) =    -19.07695  eV     1   --> A_1  D_1  S_1  
     e(  2 -  2) =    -12.88308  eV     1   --> A_1  D_1  S_1  
     e(  3 -  3) =     -8.16423  eV     1   --> B_1  D_3  S_3  
     e(  4 -  4) =     -6.34387  eV     1   --> B_2  D_4  S_4  
     e(  5 -  5) =      2.63124  eV     1   --> B_2  D_4  S_4  
     e(  6 -  6) =      5.79036  eV     1   --> A_1  D_1  S_1  
     e(  7 -  7) =      6.59232  eV     1   --> B_2  D_4  S_4  
     e(  8 -  8) =      6.73338  eV     1   --> A_1  D_1  S_1  

 **************************************************************************

 **************************************************************************

                    xk=(   0.36000,   0.20785,   0.00000  )

     Band symmetry, C_2v (mm2)  point group:

     e(  1 -  1) =    -19.25837  eV     1   --> A_1  D_1  S_1  
     e(  2 -  2) =    -12.60265  eV     1   --> A_1  D_1  S_1  
     e(  3 -  3) =     -8.09439  eV     1   --> B_1  D_3  S_3  
     e(  4 -  4) =     -6.54261  eV     1   --> B_2  D_4  S_4  
     e(  5 -  5) =      2.94135  eV     1   --> B_2  D_4  S_4  
     e(  6 -  6) =      5.53501  eV     1   --> A_1  D_1  S_1  
     e(  7 -  7) =      6.33110  eV     1   --> B_2  D_4  S_4  
     e(  8 -  8) =      6.46958  eV     1   --> A_1  D_1  S_1  

 **************************************************************************

 **************************************************************************

                    xk=(   0.35000,   0.20207,   0.00000  )

     Band symmetry, C_2v (mm2)  point group:

     e(  1 -  1) =    -19.43527  eV     1   --> A_1  D_1  S_1  
     e(  2 -  2) =    -12.32018  eV     1   --> A_1  D_1  S_1  
     e(  3 -  3) =     -8.01983  eV     1   --> B_1  D_3  S_3  
     e(  4 -  4) =     -6.73962  eV     1   --> B_2  D_4  S_4  
     e(  5 -  5) =      3.25589  eV     1   --> B_2  D_4  S_4  
     e(  6 -  6) =      5.28585  eV     1   --> A_1  D_1  S_1  
     e(  7 -  7) =      6.07751  eV     1   --> B_2  D_4  S_4  
     e(  8 -  8) =      6.21222  eV     1   --> A_1  D_1  S_1  

 **************************************************************************

 **************************************************************************

                    xk=(   0.34000,   0.19630,   0.00000  )

     Band symmetry, C_2v (mm2)  point group:

     e(  1 -  1) =    -19.60760  eV     1   --> A_1  D_1  S_1  
     e(  2 -  2) =    -12.03591  eV     1   --> A_1  D_1  S_1  
     e(  3 -  3) =     -7.94066  eV     1   --> B_1  D_3  S_3  
     e(  4 -  4) =     -6.93420  eV     1   --> B_2  D_4  S_4  
     e(  5 -  5) =      3.57330  eV     1   --> B_2  D_4  S_4  
     e(  6 -  6) =      5.04313  eV     1   --> A_1  D_1  S_1  
     e(  7 -  7) =      5.83203  eV     1   --> B_2  D_4  S_4  
     e(  8 -  8) =      5.96176  eV     1   --> A_1  D_1  S_1  

 **************************************************************************

 **************************************************************************

                    xk=(   0.33000,   0.19053,   0.00000  )

     Band symmetry, C_2v (mm2)  point group:

     e(  1 -  1) =    -19.77531  eV     1   --> A_1  D_1  S_1  
     e(  2 -  2) =    -11.75009  eV     1   --> A_1  D_1  S_1  
     e(  3 -  3) =     -7.85700  eV     1   --> B_1  D_3  S_3  
     e(  4 -  4) =     -7.12580  eV     1   --> B_2  D_4  S_4  
     e(  5 -  5) =      3.89145  eV     1   --> B_2  D_4  S_4  
     e(  6 -  6) =      4.80703  eV     1   --> A_1  D_1  S_1  
     e(  7 -  7) =      5.59567  eV     1   --> B_2  D_4  S_4  
     e(  8 -  8) =      5.71839  eV     1   --> A_1  D_1  S_1  

 **************************************************************************

 **************************************************************************

                    xk=(   0.32000,   0.18475,   0.00000  )

     Band symmetry, C_2v (mm2)  point group:

     e(  1 -  1) =    -19.93836  eV     1   --> A_1  D_1  S_1  
     e(  2 -  2) =    -11.46297  eV     1   --> A_1  D_1  S_1  
     e(  3 -  3) =     -7.76897  eV     1   --> B_1  D_3  S_3  
     e(  4 -  4) =     -7.31394  eV     1   --> B_2  D_4  S_4  
     e(  5 -  5) =      4.20622  eV     1   --> B_2  D_4  S_4  
     e(  6 -  6) =      4.57765  eV     1   --> A_1  D_1  S_1  
     e(  7 -  7) =      5.37131  eV     1   --> B_2  D_4  S_4  
     e(  8 -  8) =      5.48218  eV     1   --> A_1  D_1  S_1  

 **************************************************************************

 **************************************************************************

                    xk=(   0.31000,   0.17898,   0.00000  )

     Band symmetry, C_2v (mm2)  point group:

     e(  1 -  1) =    -20.09670  eV     1   --> A_1  D_1  S_1  
     e(  2 -  2) =    -11.17485  eV     1   --> A_1  D_1  S_1  
     e(  3 -  3) =     -7.67674  eV     1   --> B_1  D_3  S_3  
     e(  4 -  4) =     -7.49824  eV     1   --> B_2  D_4  S_4  
     e(  5 -  5) =      4.35507  eV     1   --> A_1  D_1  S_1  
     e(  6 -  6) =      4.50419  eV     1   --> B_2  D_4  S_4  
     e(  7 -  7) =      5.17064  eV     1   --> B_2  D_4  S_4  
     e(  8 -  8) =      5.25317  eV     1   --> A_1  D_1  S_1  

 **************************************************************************

 **************************************************************************

                    xk=(   0.30000,   0.17321,   0.00000  )

     Band symmetry, C_2v (mm2)  point group:

     e(  1 -  1) =    -20.25029  eV     1   --> A_1  D_1  S_1  
     e(  2 -  2) =    -10.88601  eV     1   --> A_1  D_1  S_1  
     e(  3 -  3) =     -7.67835  eV     1   --> B_2  D_4  S_4  
     e(  4 -  4) =     -7.58045  eV     1   --> B_1  D_3  S_3  
     e(  5 -  5) =      4.13933  eV     1   --> A_1  D_1  S_1  
     e(  6 -  6) =      4.70067  eV     1   --> B_2  D_4  S_4  
     e(  7 -  7) =      5.03139  eV     1   --> A_1  D_1  S_1  
     e(  8 -  8) =      5.07490  eV     1   --> B_2  D_4  S_4  

 **************************************************************************

 **************************************************************************

                    xk=(   0.29000,   0.16743,   0.00000  )

     Band symmetry, C_2v (mm2)  point group:

     e(  1 -  1) =    -20.39912  eV     1   --> A_1  D_1  S_1  
     e(  2 -  2) =    -10.59679  eV     1   --> A_1  D_1  S_1  
     e(  3 -  3) =     -7.85401  eV     1   --> B_2  D_4  S_4  
     e(  4 -  4) =     -7.48030  eV     1   --> B_1  D_3  S_3  
     e(  5 -  5) =      3.93048  eV     1   --> A_1  D_1  S_1  
     e(  6 -  6) =      4.61912  eV     1   --> B_2  D_4  S_4  
     e(  7 -  7) =      4.81685  eV     1   --> A_1  D_1  S_1  
     e(  8 -  8) =      5.24870  eV     1   --> B_2  D_4  S_4  

 **************************************************************************

 **************************************************************************

                    xk=(   0.28000,   0.16166,   0.00000  )

     Band symmetry, C_2v (mm2)  point group:

     e(  1 -  1) =    -20.54313  eV     1   --> A_1  D_1  S_1  
     e(  2 -  2) =    -10.30752  eV     1   --> A_1  D_1  S_1  
     e(  3 -  3) =     -8.02496  eV     1   --> B_2  D_4  S_4  
     e(  4 -  4) =     -7.37647  eV     1   --> B_1  D_3  S_3  
     e(  5 -  5) =      3.72857  eV     1   --> A_1  D_1  S_1  
     e(  6 -  6) =      4.44079  eV     1   --> B_2  D_4  S_4  
     e(  7 -  7) =      4.60955  eV     1   --> A_1  D_1  S_1  
     e(  8 -  8) =      5.42778  eV     1   --> B_2  D_4  S_4  

 **************************************************************************

 **************************************************************************

                    xk=(   0.27000,   0.15588,   0.00000  )

     Band symmetry, C_2v (mm2)  point group:

     e(  1 -  1) =    -20.68231  eV     1   --> A_1  D_1  S_1  
     e(  2 -  2) =    -10.01858  eV     1   --> A_1  D_1  S_1  
     e(  3 -  3) =     -8.19101  eV     1   --> B_2  D_4  S_4  
     e(  4 -  4) =     -7.26917  eV     1   --> B_1  D_3  S_3  
     e(  5 -  5) =      3.53361  eV     1   --> A_1  D_1  S_1  
     e(  6 -  6) =      4.25233  eV     1   --> B_2  D_4  S_4  
     e(  7 -  7) =      4.40951  eV     1   --> A_1  D_1  S_1  
     e(  8 -  8) =      5.34843  eV     1   --> B_2  D_4  S_4  

 **************************************************************************

 **************************************************************************

                    xk=(   0.26000,   0.15011,   0.00000  )

     Band symmetry, C_2v (mm2)  point group:

     e(  1 -  1) =    -20.81663  eV     1   --> A_1  D_1  S_1  
     e(  2 -  2) =     -9.73037  eV     1   --> A_1  D_1  S_1  
     e(  3 -  3) =     -8.35196  eV     1   --> B_2  D_4  S_4  
     e(  4 -  4) =     -7.15866  eV     1   --> B_1  D_3  S_3  
     e(  5 -  5) =      3.34563  eV     1   --> A_1  D_1  S_1  
     e(  6 -  6) =      4.06600  eV     1   --> B_2  D_4  S_4  
     e(  7 -  7) =      4.21673  eV     1   --> A_1  D_1  S_1  
     e(  8 -  8) =      5.18172  eV     1   --> B_2  D_4  S_4  

 **************************************************************************

 **************************************************************************

                    xk=(   0.25000,   0.14434,   0.00000  )

     Band symmetry, C_2v (mm2)  point group:

     e(  1 -  1) =    -20.94606  eV     1   --> A_1  D_1  S_1  
     e(  2 -  2) =     -9.44331  eV     1   --> A_1  D_1  S_1  
     e(  3 -  3) =     -8.50767  eV     1   --> B_2  D_4  S_4  
     e(  4 -  4) =     -7.04519  eV     1   --> B_1  D_3  S_3  
     e(  5 -  5) =      3.16465  eV     1   --> A_1  D_1  S_1  
     e(  6 -  6) =      3.88475  eV     1   --> B_2  D_4  S_4  
     e(  7 -  7) =      4.03122  eV     1   --> A_1  D_1  S_1  
     e(  8 -  8) =      5.00693  eV     1   --> B_2  D_4  S_4  

 **************************************************************************

 **************************************************************************

                    xk=(   0.24000,   0.13856,   0.00000  )

     Band symmetry, C_2v (mm2)  point group:

     e(  1 -  1) =    -21.07058  eV     1   --> A_1  D_1  S_1  
     e(  2 -  2) =     -9.15787  eV     1   --> A_1  D_1  S_1  
     e(  3 -  3) =     -8.65800  eV     1   --> B_2  D_4  S_4  
     e(  4 -  4) =     -6.92904  eV     1   --> B_1  D_3  S_3  
     e(  5 -  5) =      2.99069  eV     1   --> A_1  D_1  S_1  
     e(  6 -  6) =      3.70962  eV     1   --> B_2  D_4  S_4  
     e(  7 -  7) =      3.85298  eV     1   --> A_1  D_1  S_1  
     e(  8 -  8) =      4.83487  eV     1   --> B_2  D_4  S_4  

 **************************************************************************

 **************************************************************************

                    xk=(   0.23000,   0.13279,   0.00000  )

     Band symmetry, C_2v (mm2)  point group:

     e(  1 -  1) =    -21.19017  eV     1   --> A_1  D_1  S_1  
     e(  2 -  2) =     -8.87455  eV     1   --> A_1  D_1  S_1  
     e(  3 -  3) =     -8.80282  eV     1   --> B_2  D_4  S_4  
     e(  4 -  4) =     -6.81054  eV     1   --> B_1  D_3  S_3  
     e(  5 -  5) =      2.82376  eV     1   --> A_1  D_1  S_1  
     e(  6 -  6) =      3.54106  eV     1   --> B_2  D_4  S_4  
     e(  7 -  7) =      3.68200  eV     1   --> A_1  D_1  S_1  
     e(  8 -  8) =      4.66812  eV     1   --> B_2  D_4  S_4  

 **************************************************************************

 **************************************************************************

                    xk=(   0.22000,   0.12702,   0.00000  )

     Band symmetry, C_2v (mm2)  point group:

     e(  1 -  1) =    -21.30481  eV     1   --> A_1  D_1  S_1  
     e(  2 -  2) =     -8.94203  eV     1   --> B_2  D_4  S_4  
     e(  3 -  3) =     -8.59389  eV     1   --> A_1  D_1  S_1  
     e(  4 -  4) =     -6.69002  eV     1   --> B_1  D_3  S_3  
     e(  5 -  5) =      2.66387  eV     1   --> A_1  D_1  S_1  
     e(  6 -  6) =      3.37933  eV     1   --> B_2  D_4  S_4  
     e(  7 -  7) =      3.51830  eV     1   --> A_1  D_1  S_1  
     e(  8 -  8) =      4.50760  eV     1   --> B_2  D_4  S_4  

 **************************************************************************

 **************************************************************************

                    xk=(   0.21000,   0.12124,   0.00000  )

     Band symmetry, C_2v (mm2)  point group:

     e(  1 -  1) =    -21.41447  eV     1   --> A_1  D_1  S_1  
     e(  2 -  2) =     -9.07553  eV     1   --> B_2  D_4  S_4  
     e(  3 -  3) =     -8.31645  eV     1   --> A_1  D_1  S_1  
     e(  4 -  4) =     -6.56787  eV     1   --> B_1  D_3  S_3  
     e(  5 -  5) =      2.51105  eV     1   --> A_1  D_1  S_1  
     e(  6 -  6) =      3.22454  eV     1   --> B_2  D_4  S_4  
     e(  7 -  7) =      3.36187  eV     1   --> A_1  D_1  S_1  
     e(  8 -  8) =      4.35372  eV     1   --> B_2  D_4  S_4  

 **************************************************************************

 **************************************************************************

                    xk=(   0.20000,   0.11547,   0.00000  )

     Band symmetry, C_2v (mm2)  point group:

     e(  1 -  1) =    -21.51914  eV     1   --> A_1  D_1  S_1  
     e(  2 -  2) =     -9.20325  eV     1   --> B_2  D_4  S_4  
     e(  3 -  3) =     -8.04287  eV     1   --> A_1  D_1  S_1  
     e(  4 -  4) =     -6.44450  eV     1   --> B_1  D_3  S_3  
     e(  5 -  5) =      2.36529  eV     1   --> A_1  D_1  S_1  
     e(  6 -  6) =      3.07678  eV     1   --> B_2  D_4  S_4  
     e(  7 -  7) =      3.21271  eV     1   --> A_1  D_1  S_1  
     e(  8 -  8) =      4.20668  eV     1   --> B_2  D_4  S_4  

 **************************************************************************

 **************************************************************************

                    xk=(   0.19000,   0.10970,   0.00000  )

     Band symmetry, C_2v (mm2)  point group:

     e(  1 -  1) =    -21.61881  eV     1   --> A_1  D_1  S_1  
     e(  2 -  2) =     -9.32510  eV     1   --> B_2  D_4  S_4  
     e(  3 -  3) =     -7.77381  eV     1   --> A_1  D_1  S_1  
     e(  4 -  4) =     -6.32036  eV     1   --> B_1  D_3  S_3  
     e(  5 -  5) =      2.22661  eV     1   --> A_1  D_1  S_1  
     e(  6 -  6) =      2.93611  eV     1   --> B_2  D_4  S_4  
     e(  7 -  7) =      3.07083  eV     1   --> A_1  D_1  S_1  
     e(  8 -  8) =      4.06660  eV     1   --> B_2  D_4  S_4  

 **************************************************************************

 **************************************************************************

                    xk=(   0.18000,   0.10392,   0.00000  )

     Band symmetry, C_2v (mm2)  point group:

     e(  1 -  1) =    -21.71346  eV     1   --> A_1  D_1  S_1  
     e(  2 -  2) =     -9.44102  eV     1   --> B_2  D_4  S_4  
     e(  3 -  3) =     -7.50999  eV     1   --> A_1  D_1  S_1  
     e(  4 -  4) =     -6.19596  eV     1   --> B_1  D_3  S_3  
     e(  5 -  5) =      2.09501  eV     1   --> A_1  D_1  S_1  
     e(  6 -  6) =      2.80255  eV     1   --> B_2  D_4  S_4  
     e(  7 -  7) =      2.93622  eV     1   --> A_1  D_1  S_1  
     e(  8 -  8) =      3.93356  eV     1   --> B_2  D_4  S_4  

 **************************************************************************

 **************************************************************************

                    xk=(   0.17000,   0.09815,   0.00000  )

     Band symmetry, C_2v (mm2)  point group:

     e(  1 -  1) =    -21.80306  eV     1   --> A_1  D_1  S_1  
     e(  2 -  2) =     -9.55095  eV     1   --> B_2  D_4  S_4  
     e(  3 -  3) =     -7.25217  eV     1   --> A_1  D_1  S_1  
     e(  4 -  4) =     -6.07182  eV     1   --> B_1  D_3  S_3  
     e(  5 -  5) =      1.97051  eV     1   --> A_1  D_1  S_1  
     e(  6 -  6) =      2.67615  eV     1   --> B_2  D_4  S_4  
     e(  7 -  7) =      2.80889  eV     1   --> A_1  D_1  S_1  
     e(  8 -  8) =      3.80760  eV     1   --> B_2  D_4  S_4  

 **************************************************************************

 **************************************************************************

                    xk=(   0.16000,   0.09238,   0.00000  )

     Band symmetry, C_2v (mm2)  point group:

     e(  1 -  1) =    -21.88762  eV     1   --> A_1  D_1  S_1  
     e(  2 -  2) =     -9.65483  eV     1   --> B_2  D_4  S_4  
     e(  3 -  3) =     -7.00118  eV     1   --> A_1  D_1  S_1  
     e(  4 -  4) =     -5.94854  eV     1   --> B_1  D_3  S_3  
     e(  5 -  5) =      1.85311  eV     1   --> A_1  D_1  S_1  
     e(  6 -  6) =      2.55691  eV     1   --> B_2  D_4  S_4  
     e(  7 -  7) =      2.68884  eV     1   --> A_1  D_1  S_1  
     e(  8 -  8) =      3.68876  eV     1   --> B_2  D_4  S_4  

 **************************************************************************

 **************************************************************************

                    xk=(   0.15000,   0.08660,   0.00000  )

     Band symmetry, C_2v (mm2)  point group:

     e(  1 -  1) =    -21.96711  eV     1   --> A_1  D_1  S_1  
     e(  2 -  2) =     -9.75262  eV     1   --> B_2  D_4  S_4  
     e(  3 -  3) =     -6.75787  eV     1   --> A_1  D_1  S_1  
     e(  4 -  4) =     -5.82674  eV     1   --> B_1  D_3  S_3  
     e(  5 -  5) =      1.74281  eV     1   --> A_1  D_1  S_1  
     e(  6 -  6) =      2.44486  eV     1   --> B_2  D_4  S_4  
     e(  7 -  7) =      2.57607  eV     1   --> A_1  D_1  S_1  
     e(  8 -  8) =      3.57707  eV     1   --> B_2  D_4  S_4  

 **************************************************************************

 **************************************************************************

                    xk=(   0.14000,   0.08083,   0.00000  )

     Band symmetry, C_2v (mm2)  point group:

     e(  1 -  1) =    -22.04153  eV     1   --> A_1  D_1  S_1  
     e(  2 -  2) =     -9.84428  eV     1   --> B_2  D_4  S_4  
     e(  3 -  3) =     -6.52318  eV     1   --> A_1  D_1  S_1  
     e(  4 -  4) =     -5.70710  eV     1   --> B_1  D_3  S_3  
     e(  5 -  5) =      1.63963  eV     1   --> A_1  D_1  S_1  
     e(  6 -  6) =      2.34000  eV     1   --> B_2  D_4  S_4  
     e(  7 -  7) =      2.47057  eV     1   --> A_1  D_1  S_1  
     e(  8 -  8) =      3.47253  eV     1   --> B_2  D_4  S_4  

 **************************************************************************

 **************************************************************************

                    xk=(   0.13000,   0.07506,   0.00000  )

     Band symmetry, C_2v (mm2)  point group:

     e(  1 -  1) =    -22.11086  eV     1   --> A_1  D_1  S_1  
     e(  2 -  2) =     -9.92976  eV     1   --> B_2  D_4  S_4  
     e(  3 -  3) =     -6.29806  eV     1   --> A_1  D_1  S_1  
     e(  4 -  4) =     -5.59036  eV     1   --> B_1  D_3  S_3  
     e(  5 -  5) =      1.54356  eV     1   --> A_1  D_1  S_1  
     e(  6 -  6) =      2.24235  eV     1   --> B_2  D_4  S_4  
     e(  7 -  7) =      2.37235  eV     1   --> A_1  D_1  S_1  
     e(  8 -  8) =      3.37516  eV     1   --> B_2  D_4  S_4  

 **************************************************************************

 **************************************************************************

                    xk=(   0.12000,   0.06928,   0.00000  )

     Band symmetry, C_2v (mm2)  point group:

     e(  1 -  1) =    -22.17510  eV     1   --> A_1  D_1  S_1  
     e(  2 -  2) =    -10.00904  eV     1   --> B_2  D_4  S_4  
     e(  3 -  3) =     -6.08352  eV     1   --> A_1  D_1  S_1  
     e(  4 -  4) =     -5.47728  eV     1   --> B_1  D_3  S_3  
     e(  5 -  5) =      1.45460  eV     1   --> A_1  D_1  S_1  
     e(  6 -  6) =      2.15191  eV     1   --> B_2  D_4  S_4  
     e(  7 -  7) =      2.28141  eV     1   --> A_1  D_1  S_1  
     e(  8 -  8) =      3.28498  eV     1   --> B_2  D_4  S_4  

 **************************************************************************

 **************************************************************************

                    xk=(   0.11000,   0.06351,   0.00000  )

     Band symmetry, C_2v (mm2)  point group:

     e(  1 -  1) =    -22.23423  eV     1   --> A_1  D_1  S_1  
     e(  2 -  2) =    -10.08208  eV     1   --> B_2  D_4  S_4  
     e(  3 -  3) =     -5.88061  eV     1   --> A_1  D_1  S_1  
     e(  4 -  4) =     -5.36868  eV     1   --> B_1  D_3  S_3  
     e(  5 -  5) =      1.37277  eV     1   --> A_1  D_1  S_1  
     e(  6 -  6) =      2.06869  eV     1   --> B_2  D_4  S_4  
     e(  7 -  7) =      2.19775  eV     1   --> A_1  D_1  S_1  
     e(  8 -  8) =      3.20199  eV     1   --> B_2  D_4  S_4  

 **************************************************************************

 **************************************************************************

                    xk=(   0.10000,   0.05774,   0.00000  )

     Band symmetry, C_2v (mm2)  point group:

     e(  1 -  1) =    -22.28824  eV     1   --> A_1  D_1  S_1  
     e(  2 -  2) =    -10.14885  eV     1   --> B_2  D_4  S_4  
     e(  3 -  3) =     -5.69041  eV     1   --> A_1  D_1  S_1  
     e(  4 -  4) =     -5.26540  eV     1   --> B_1  D_3  S_3  
     e(  5 -  5) =      1.29806  eV     1   --> A_1  D_1  S_1  
     e(  6 -  6) =      1.99269  eV     1   --> B_2  D_4  S_4  
     e(  7 -  7) =      2.12137  eV     1   --> A_1  D_1  S_1  
     e(  8 -  8) =      3.12620  eV     1   --> B_2  D_4  S_4  

 **************************************************************************

 **************************************************************************

                    xk=(   0.09000,   0.05196,   0.00000  )

     Band symmetry, C_2v (mm2)  point group:

     e(  1 -  1) =    -22.33713  eV     1   --> A_1  D_1  S_1  
     e(  2 -  2) =    -10.20933  eV     1   --> B_2  D_4  S_4  
     e(  3 -  3) =     -5.51400  eV     1   --> A_1  D_1  S_1  
     e(  4 -  4) =     -5.16833  eV     1   --> B_1  D_3  S_3  
     e(  5 -  5) =      1.23047  eV     1   --> A_1  D_1  S_1  
     e(  6 -  6) =      1.92391  eV     1   --> B_2  D_4  S_4  
     e(  7 -  7) =      2.05226  eV     1   --> A_1  D_1  S_1  
     e(  8 -  8) =      3.05762  eV     1   --> B_2  D_4  S_4  

 **************************************************************************

 **************************************************************************

                    xk=(   0.08000,   0.04619,   0.00000  )

     Band symmetry, C_2v (mm2)  point group:

     e(  1 -  1) =    -22.38090  eV     1   --> A_1  D_1  S_1  
     e(  2 -  2) =    -10.26349  eV     1   --> B_2  D_4  S_4  
     e(  3 -  3) =     -5.35247  eV     1   --> A_1  D_1  S_1  
     e(  4 -  4) =     -5.07835  eV     1   --> B_1  D_3  S_3  
     e(  5 -  5) =      1.17001  eV     1   --> A_1  D_1  S_1  
     e(  6 -  6) =      1.86237  eV     1   --> B_2  D_4  S_4  
     e(  7 -  7) =      1.99043  eV     1   --> A_1  D_1  S_1  
     e(  8 -  8) =      2.99624  eV     1   --> B_2  D_4  S_4  

 **************************************************************************

 **************************************************************************

                    xk=(   0.07000,   0.04041,   0.00000  )

     Band symmetry, C_2v (mm2)  point group:

     e(  1 -  1) =    -22.41953  eV     1   --> A_1  D_1  S_1  
     e(  2 -  2) =    -10.31133  eV     1   --> B_2  D_4  S_4  
     e(  3 -  3) =     -5.20689  eV     1   --> A_1  D_1  S_1  
     e(  4 -  4) =     -4.99633  eV     1   --> B_1  D_3  S_3  
     e(  5 -  5) =      1.11666  eV     1   --> A_1  D_1  S_1  
     e(  6 -  6) =      1.80806  eV     1   --> B_2  D_4  S_4  
     e(  7 -  7) =      1.93588  eV     1   --> A_1  D_1  S_1  
     e(  8 -  8) =      2.94208  eV     1   --> B_2  D_4  S_4  

 **************************************************************************

 **************************************************************************

                    xk=(   0.06000,   0.03464,   0.00000  )

     Band symmetry, C_2v (mm2)  point group:

     e(  1 -  1) =    -22.45302  eV     1   --> A_1  D_1  S_1  
     e(  2 -  2) =    -10.35282  eV     1   --> B_2  D_4  S_4  
     e(  3 -  3) =     -5.07828  eV     1   --> A_1  D_1  S_1  
     e(  4 -  4) =     -4.92316  eV     1   --> B_1  D_3  S_3  
     e(  5 -  5) =      1.07044  eV     1   --> A_1  D_1  S_1  
     e(  6 -  6) =      1.76099  eV     1   --> B_2  D_4  S_4  
     e(  7 -  7) =      1.88860  eV     1   --> A_1  D_1  S_1  
     e(  8 -  8) =      2.89513  eV     1   --> B_2  D_4  S_4  

 **************************************************************************

 **************************************************************************

                    xk=(   0.05000,   0.02887,   0.00000  )

     Band symmetry, C_2v (mm2)  point group:

     e(  1 -  1) =    -22.48137  eV     1   --> A_1  D_1  S_1  
     e(  2 -  2) =    -10.38795  eV     1   --> B_2  D_4  S_4  
     e(  3 -  3) =     -4.96761  eV     1   --> A_1  D_1  S_1  
     e(  4 -  4) =     -4.85964  eV     1   --> B_1  D_3  S_3  
     e(  5 -  5) =      1.03133  eV     1   --> A_1  D_1  S_1  
     e(  6 -  6) =      1.72116  eV     1   --> B_2  D_4  S_4  
     e(  7 -  7) =      1.84860  eV     1   --> A_1  D_1  S_1  
     e(  8 -  8) =      2.85540  eV     1   --> B_2  D_4  S_4  

 **************************************************************************

 **************************************************************************

                    xk=(   0.04000,   0.02309,   0.00000  )

     Band symmetry, C_2v (mm2)  point group:

     e(  1 -  1) =    -22.50456  eV     1   --> A_1  D_1  S_1  
     e(  2 -  2) =    -10.41671  eV     1   --> B_2  D_4  S_4  
     e(  3 -  3) =     -4.87576  eV     1   --> A_1  D_1  S_1  
     e(  4 -  4) =     -4.80652  eV     1   --> B_1  D_3  S_3  
     e(  5 -  5) =      0.99934  eV     1   --> A_1  D_1  S_1  
     e(  6 -  6) =      1.68857  eV     1   --> B_2  D_4  S_4  
     e(  7 -  7) =      1.81587  eV     1   --> A_1  D_1  S_1  
     e(  8 -  8) =      2.82289  eV     1   --> B_2  D_4  S_4  

 **************************************************************************

 **************************************************************************

                    xk=(   0.03000,   0.01732,   0.00000  )

     Band symmetry, C_2v (mm2)  point group:

     e(  1 -  1) =    -22.52261  eV     1   --> A_1  D_1  S_1  
     e(  2 -  2) =    -10.43908  eV     1   --> B_2  D_4  S_4  
     e(  3 -  3) =     -4.80347  eV     1   --> A_1  D_1  S_1  
     e(  4 -  4) =     -4.76447  eV     1   --> B_1  D_3  S_3  
     e(  5 -  5) =      0.97446  eV     1   --> A_1  D_1  S_1  
     e(  6 -  6) =      1.66322  eV     1   --> B_2  D_4  S_4  
     e(  7 -  7) =      1.79041  eV     1   --> A_1  D_1  S_1  
     e(  8 -  8) =      2.79761  eV     1   --> B_2  D_4  S_4  

 **************************************************************************

 **************************************************************************

                    xk=(   0.02000,   0.01155,   0.00000  )

     Band symmetry, C_2v (mm2)  point group:

     e(  1 -  1) =    -22.53550  eV     1   --> A_1  D_1  S_1  
     e(  2 -  2) =    -10.45507  eV     1   --> B_2  D_4  S_4  
     e(  3 -  3) =     -4.75138  eV     1   --> A_1  D_1  S_1  
     e(  4 -  4) =     -4.73403  eV     1   --> B_1  D_3  S_3  
     e(  5 -  5) =      0.95669  eV     1   --> A_1  D_1  S_1  
     e(  6 -  6) =      1.64511  eV     1   --> B_2  D_4  S_4  
     e(  7 -  7) =      1.77223  eV     1   --> A_1  D_1  S_1  
     e(  8 -  8) =      2.77955  eV     1   --> B_2  D_4  S_4  

 **************************************************************************

 **************************************************************************

                    xk=(   0.01000,   0.00577,   0.00000  )

     Band symmetry, C_2v (mm2)  point group:

     e(  1 -  1) =    -22.54324  eV     1   --> A_1  D_1  S_1  
     e(  2 -  2) =    -10.46467  eV     1   --> B_2  D_4  S_4  
     e(  3 -  3) =     -4.71993  eV     1   --> A_1  D_1  S_1  
     e(  4 -  4) =     -4.71559  eV     1   --> B_1  D_3  S_3  
     e(  5 -  5) =      0.94603  eV     1   --> A_1  D_1  S_1  
     e(  6 -  6) =      1.63424  eV     1   --> B_2  D_4  S_4  
     e(  7 -  7) =      1.76132  eV     1   --> A_1  D_1  S_1  
     e(  8 -  8) =      2.76871  eV     1   --> B_2  D_4  S_4  

 **************************************************************************

 **************************************************************************

                    xk=(   0.00000,   0.00000,   0.00000  )

     point group D_6h(6/mmm)
     there are 12 classes
     the character table:

       E     2C6   2C3   C2    3C2'  3C2'' i     2S3   2S6   s_h   3s_d  3s_v 
A_1g   1.00  1.00  1.00  1.00  1.00  1.00  1.00  1.00  1.00  1.00  1.00  1.00
A_2g   1.00  1.00  1.00  1.00 -1.00 -1.00  1.00  1.00  1.00  1.00 -1.00 -1.00
B_1g   1.00 -1.00  1.00 -1.00  1.00 -1.00  1.00 -1.00  1.00 -1.00  1.00 -1.00
B_2g   1.00 -1.00  1.00 -1.00 -1.00  1.00  1.00 -1.00  1.00 -1.00 -1.00  1.00
E_1g   2.00  1.00 -1.00 -2.00  0.00  0.00  2.00  1.00 -1.00 -2.00  0.00  0.00
E_2g   2.00 -1.00 -1.00  2.00  0.00  0.00  2.00 -1.00 -1.00  2.00  0.00  0.00
A_1u   1.00  1.00  1.00  1.00  1.00  1.00 -1.00 -1.00 -1.00 -1.00 -1.00 -1.00
A_2u   1.00  1.00  1.00  1.00 -1.00 -1.00 -1.00 -1.00 -1.00 -1.00  1.00  1.00
B_1u   1.00 -1.00  1.00 -1.00  1.00 -1.00 -1.00  1.00 -1.00  1.00 -1.00  1.00
B_2u   1.00 -1.00  1.00 -1.00 -1.00  1.00 -1.00  1.00 -1.00  1.00  1.00 -1.00
E_1u   2.00  1.00 -1.00 -2.00  0.00  0.00 -2.00 -1.00  1.00  2.00  0.00  0.00
E_2u   2.00 -1.00 -1.00  2.00  0.00  0.00 -2.00  1.00  1.00 -2.00  0.00  0.00

     the symmetry operations in each class and the name of the first element:

     E        1
                                                                 
     2C6      5    6
                                                                 
     2C3      7    8
                                                                 
     C2       2
                                                                 
     3C2'     4   12   11
                                                                 
     3C2''    3    9   10
                                                                 
     i       13
                                                                 
     2S3     17   18
                                                                 
     2S6     19   20
                                                                 
     s_h     14
                                                                 
     3s_d    16   24   23
                                                                 
     3s_v    15   21   22
                                                                 

     Band symmetry, D_6h(6/mmm) point group:

     e(  1 -  1) =    -22.54581  eV     1   --> A_1g           
     e(  2 -  2) =    -10.46787  eV     1   --> A_2u           
     e(  3 -  4) =     -4.70942  eV     2   --> E_2g           
     e(  5 -  5) =      0.94248  eV     1   --> A_1g           
     e(  6 -  6) =      1.63062  eV     1   --> A_2u           
     e(  7 -  7) =      1.75769  eV     1   --> A_1g           
     e(  8 -  8) =      2.76510  eV     1   --> A_2u           

 **************************************************************************

     BANDS        :   1m18.26s CPU   1m35.21s WALL


   This run was terminated on:  13:29: 3   5Aug2023            

=------------------------------------------------------------------------------=
   JOB DONE.
=------------------------------------------------------------------------------=
