
     Program PWSCF v.6.7MaX starts on 25Aug2023 at 10:16:39 

     This program is part of the open-source Quantum ESPRESSO suite
     for quantum simulation of materials; please cite
         "P. Giannozzi et al., J. Phys.:Condens. Matter 21 395502 (2009);
         "P. Giannozzi et al., J. Phys.:Condens. Matter 29 465901 (2017);
          URL http://www.quantum-espresso.org", 
     in publications or presentations arising from this work. More details at
     http://www.quantum-espresso.org/quote

     Parallel version (MPI), running on     2 processors

     MPI processes distributed on     1 nodes
     R & G space division:  proc/nbgrp/npool/nimage =       2
     Waiting for input...
     Reading input from standard input

     Current dimensions of program PWSCF are:
     Max number of different atomic species (ntypx) = 10
     Max number of k-points (npk) =  40000
     Max angular momentum in pseudopotentials (lmaxx) =  3

     Atomic positions and unit cell read from directory:
     ./tmp/graphene1.save/
     Atomic positions from file used, from input discarded

     file C.pbe-n-kjpaw_psl.1.0.0.UPF: wavefunction(s)  2S 2P renormalized

     Subspace diagonalization in iterative solution of the eigenvalue problem:
     a serial algorithm will be used


     Parallelization info
     --------------------
     sticks:   dense  smooth     PW     G-vecs:    dense   smooth      PW
     Min         291     291     81                46249    46249    7405
     Max         292     292     82                46266    46266    7432
     Sum         583     583    163                92515    92515   14837



     bravais-lattice index     =           12
     lattice parameter (alat)  =       4.5675  a.u.
     unit-cell volume          =     682.8268 (a.u.)^3
     number of atoms/cell      =            2
     number of atomic types    =            1
     number of electrons       =         8.00
     number of Kohn-Sham states=            8
     kinetic-energy cutoff     =     100.0000  Ry
     charge density cutoff     =     400.0000  Ry
     Exchange-correlation= SLA  PW   PBX  PBC
                           (   1   4   3   4   0   0   0)

     celldm(1)=   4.567468  celldm(2)=   1.000000  celldm(3)=   8.274721
     celldm(4)=  -0.500000  celldm(5)=   0.000000  celldm(6)=   0.000000

     crystal axes: (cart. coord. in units of alat)
               a(1) = (   1.000000   0.000000   0.000000 )  
               a(2) = (  -0.500000   0.866025   0.000000 )  
               a(3) = (   0.000000   0.000000   8.274721 )  

     reciprocal axes: (cart. coord. in units 2 pi/alat)
               b(1) = (  1.000000  0.577350 -0.000000 )  
               b(2) = (  0.000000  1.154701  0.000000 )  
               b(3) = (  0.000000 -0.000000  0.120850 )  


     PseudoPot. # 1 for C  read from file:
     ./Pseudo/C.pbe-n-kjpaw_psl.1.0.0.UPF
     MD5 check sum: ecdf03482cb4269f2fcfa842d572f30f
     Pseudo is Projector augmented-wave + core cor, Zval =  4.0
     Generated using &quot;atomic&quot; code by A. Dal Corso  v.6.3
     Shape of augmentation charge: PSQ
     Using radial grid of 1073 points,  4 beta functions with: 
                l(1) =   0
                l(2) =   0
                l(3) =   1
                l(4) =   1
     Q(r) pseudized with 0 coefficients 


     atomic species   valence    mass     pseudopotential
        C              4.00    12.01070     C ( 1.00)

     24 Sym. Ops., with inversion, found (18 have fractional translation)


                                    s                        frac. trans.

      isym =  1     identity                                     

 cryst.   s( 1) = (     1          0          0      )
                  (     0          1          0      )
                  (     0          0          1      )

 cart.    s( 1) = (  1.0000000  0.0000000  0.0000000 )
                  (  0.0000000  1.0000000  0.0000000 )
                  (  0.0000000  0.0000000  1.0000000 )


      isym =  2     180 deg rotation - cart. axis [0,0,1]        

 cryst.   s( 2) = (    -1          0          0      )    f =( -0.3333333 )
                  (     0         -1          0      )       (  0.3333333 )
                  (     0          0          1      )       (  0.0000000 )

 cart.    s( 2) = ( -1.0000000  0.0000000  0.0000000 )    f =( -0.5000000 )
                  (  0.0000000 -1.0000000  0.0000000 )       (  0.2886751 )
                  (  0.0000000  0.0000000  1.0000000 )       (  0.0000000 )


      isym =  3     180 deg rotation - cart. axis [0,1,0]        

 cryst.   s( 3) = (    -1          0          0      )    f =(  0.0000000 )
                  (     1          1          0      )       (  0.0000000 )
                  (     0          0         -1      )       ( -0.5000000 )

 cart.    s( 3) = ( -1.0000000  0.0000000  0.0000000 )    f =(  0.0000000 )
                  (  0.0000000  1.0000000  0.0000000 )       (  0.0000000 )
                  (  0.0000000  0.0000000 -1.0000000 )       ( -4.1373604 )


      isym =  4     180 deg rotation - cart. axis [1,0,0]        

 cryst.   s( 4) = (     1          0          0      )    f =( -0.3333333 )
                  (    -1         -1          0      )       (  0.3333333 )
                  (     0          0         -1      )       ( -0.5000000 )

 cart.    s( 4) = (  1.0000000 -0.0000000  0.0000000 )    f =( -0.5000000 )
                  (  0.0000000 -1.0000000  0.0000000 )       (  0.2886751 )
                  (  0.0000000  0.0000000 -1.0000000 )       ( -4.1373604 )


      isym =  5      60 deg rotation - cryst. axis [0,0,1]       

 cryst.   s( 5) = (     1          1          0      )    f =( -0.3333333 )
                  (    -1          0          0      )       (  0.3333333 )
                  (     0          0          1      )       (  0.0000000 )

 cart.    s( 5) = (  0.5000000 -0.8660254  0.0000000 )    f =( -0.5000000 )
                  (  0.8660254  0.5000000  0.0000000 )       (  0.2886751 )
                  (  0.0000000  0.0000000  1.0000000 )       (  0.0000000 )


      isym =  6      60 deg rotation - cryst. axis [0,0,-1]      

 cryst.   s( 6) = (     0         -1          0      )    f =( -0.3333333 )
                  (     1          1          0      )       (  0.3333333 )
                  (     0          0          1      )       (  0.0000000 )

 cart.    s( 6) = (  0.5000000  0.8660254  0.0000000 )    f =( -0.5000000 )
                  ( -0.8660254  0.5000000  0.0000000 )       (  0.2886751 )
                  (  0.0000000  0.0000000  1.0000000 )       (  0.0000000 )


      isym =  7     120 deg rotation - cryst. axis [0,0,1]       

 cryst.   s( 7) = (     0          1          0      )
                  (    -1         -1          0      )
                  (     0          0          1      )

 cart.    s( 7) = ( -0.5000000 -0.8660254  0.0000000 )
                  (  0.8660254 -0.5000000  0.0000000 )
                  (  0.0000000  0.0000000  1.0000000 )


      isym =  8     120 deg rotation - cryst. axis [0,0,-1]      

 cryst.   s( 8) = (    -1         -1          0      )
                  (     1          0          0      )
                  (     0          0          1      )

 cart.    s( 8) = ( -0.5000000  0.8660254  0.0000000 )
                  ( -0.8660254 -0.5000000  0.0000000 )
                  (  0.0000000  0.0000000  1.0000000 )


      isym =  9     180 deg rotation - cryst. axis [1,-1,0]      

 cryst.   s( 9) = (     0         -1          0      )    f =(  0.0000000 )
                  (    -1          0          0      )       (  0.0000000 )
                  (     0          0         -1      )       ( -0.5000000 )

 cart.    s( 9) = (  0.5000000 -0.8660254  0.0000000 )    f =(  0.0000000 )
                  ( -0.8660254 -0.5000000  0.0000000 )       (  0.0000000 )
                  (  0.0000000  0.0000000 -1.0000000 )       ( -4.1373604 )


      isym = 10     180 deg rotation - cryst. axis [2,1,0]       

 cryst.   s(10) = (     1          1          0      )    f =(  0.0000000 )
                  (     0         -1          0      )       (  0.0000000 )
                  (     0          0         -1      )       ( -0.5000000 )

 cart.    s(10) = (  0.5000000  0.8660254  0.0000000 )    f =(  0.0000000 )
                  (  0.8660254 -0.5000000  0.0000000 )       (  0.0000000 )
                  (  0.0000000  0.0000000 -1.0000000 )       ( -4.1373604 )


      isym = 11     180 deg rotation - cryst. axis [0,1,0]       

 cryst.   s(11) = (    -1         -1          0      )    f =( -0.3333333 )
                  (     0          1          0      )       (  0.3333333 )
                  (     0          0         -1      )       ( -0.5000000 )

 cart.    s(11) = ( -0.5000000 -0.8660254  0.0000000 )    f =( -0.5000000 )
                  ( -0.8660254  0.5000000  0.0000000 )       (  0.2886751 )
                  (  0.0000000  0.0000000 -1.0000000 )       ( -4.1373604 )


      isym = 12     180 deg rotation - cryst. axis [1,1,0]       

 cryst.   s(12) = (     0          1          0      )    f =( -0.3333333 )
                  (     1          0          0      )       (  0.3333333 )
                  (     0          0         -1      )       ( -0.5000000 )

 cart.    s(12) = ( -0.5000000  0.8660254  0.0000000 )    f =( -0.5000000 )
                  (  0.8660254  0.5000000  0.0000000 )       (  0.2886751 )
                  (  0.0000000  0.0000000 -1.0000000 )       ( -4.1373604 )


      isym = 13     inversion                                    

 cryst.   s(13) = (    -1          0          0      )    f =( -0.3333333 )
                  (     0         -1          0      )       (  0.3333333 )
                  (     0          0         -1      )       ( -0.5000000 )

 cart.    s(13) = ( -1.0000000  0.0000000  0.0000000 )    f =( -0.5000000 )
                  (  0.0000000 -1.0000000  0.0000000 )       (  0.2886751 )
                  (  0.0000000  0.0000000 -1.0000000 )       ( -4.1373604 )


      isym = 14     inv. 180 deg rotation - cart. axis [0,0,1]   

 cryst.   s(14) = (     1          0          0      )    f =(  0.0000000 )
                  (     0          1          0      )       (  0.0000000 )
                  (     0          0         -1      )       ( -0.5000000 )

 cart.    s(14) = (  1.0000000  0.0000000  0.0000000 )    f =(  0.0000000 )
                  (  0.0000000  1.0000000  0.0000000 )       (  0.0000000 )
                  (  0.0000000  0.0000000 -1.0000000 )       ( -4.1373604 )


      isym = 15     inv. 180 deg rotation - cart. axis [0,1,0]   

 cryst.   s(15) = (     1          0          0      )    f =( -0.3333333 )
                  (    -1         -1          0      )       (  0.3333333 )
                  (     0          0          1      )       (  0.0000000 )

 cart.    s(15) = (  1.0000000 -0.0000000  0.0000000 )    f =( -0.5000000 )
                  (  0.0000000 -1.0000000  0.0000000 )       (  0.2886751 )
                  (  0.0000000  0.0000000  1.0000000 )       (  0.0000000 )


      isym = 16     inv. 180 deg rotation - cart. axis [1,0,0]   

 cryst.   s(16) = (    -1          0          0      )
                  (     1          1          0      )
                  (     0          0          1      )

 cart.    s(16) = ( -1.0000000  0.0000000  0.0000000 )
                  (  0.0000000  1.0000000  0.0000000 )
                  (  0.0000000  0.0000000  1.0000000 )


      isym = 17     inv.  60 deg rotation - cryst. axis [0,0,1]  

 cryst.   s(17) = (    -1         -1          0      )    f =(  0.0000000 )
                  (     1          0          0      )       (  0.0000000 )
                  (     0          0         -1      )       ( -0.5000000 )

 cart.    s(17) = ( -0.5000000  0.8660254  0.0000000 )    f =(  0.0000000 )
                  ( -0.8660254 -0.5000000  0.0000000 )       (  0.0000000 )
                  (  0.0000000  0.0000000 -1.0000000 )       ( -4.1373604 )


      isym = 18     inv.  60 deg rotation - cryst. axis [0,0,-1] 

 cryst.   s(18) = (     0          1          0      )    f =(  0.0000000 )
                  (    -1         -1          0      )       (  0.0000000 )
                  (     0          0         -1      )       ( -0.5000000 )

 cart.    s(18) = ( -0.5000000 -0.8660254  0.0000000 )    f =(  0.0000000 )
                  (  0.8660254 -0.5000000  0.0000000 )       (  0.0000000 )
                  (  0.0000000  0.0000000 -1.0000000 )       ( -4.1373604 )


      isym = 19     inv. 120 deg rotation - cryst. axis [0,0,1]  

 cryst.   s(19) = (     0         -1          0      )    f =( -0.3333333 )
                  (     1          1          0      )       (  0.3333333 )
                  (     0          0         -1      )       ( -0.5000000 )

 cart.    s(19) = (  0.5000000  0.8660254  0.0000000 )    f =( -0.5000000 )
                  ( -0.8660254  0.5000000  0.0000000 )       (  0.2886751 )
                  (  0.0000000  0.0000000 -1.0000000 )       ( -4.1373604 )


      isym = 20     inv. 120 deg rotation - cryst. axis [0,0,-1] 

 cryst.   s(20) = (     1          1          0      )    f =( -0.3333333 )
                  (    -1          0          0      )       (  0.3333333 )
                  (     0          0         -1      )       ( -0.5000000 )

 cart.    s(20) = (  0.5000000 -0.8660254  0.0000000 )    f =( -0.5000000 )
                  (  0.8660254  0.5000000  0.0000000 )       (  0.2886751 )
                  (  0.0000000  0.0000000 -1.0000000 )       ( -4.1373604 )


      isym = 21     inv. 180 deg rotation - cryst. axis [1,-1,0] 

 cryst.   s(21) = (     0          1          0      )    f =( -0.3333333 )
                  (     1          0          0      )       (  0.3333333 )
                  (     0          0          1      )       (  0.0000000 )

 cart.    s(21) = ( -0.5000000  0.8660254  0.0000000 )    f =( -0.5000000 )
                  (  0.8660254  0.5000000  0.0000000 )       (  0.2886751 )
                  (  0.0000000  0.0000000  1.0000000 )       (  0.0000000 )


      isym = 22     inv. 180 deg rotation - cryst. axis [2,1,0]  

 cryst.   s(22) = (    -1         -1          0      )    f =( -0.3333333 )
                  (     0          1          0      )       (  0.3333333 )
                  (     0          0          1      )       (  0.0000000 )

 cart.    s(22) = ( -0.5000000 -0.8660254  0.0000000 )    f =( -0.5000000 )
                  ( -0.8660254  0.5000000  0.0000000 )       (  0.2886751 )
                  (  0.0000000  0.0000000  1.0000000 )       (  0.0000000 )


      isym = 23     inv. 180 deg rotation - cryst. axis [0,1,0]  

 cryst.   s(23) = (     1          1          0      )
                  (     0         -1          0      )
                  (     0          0          1      )

 cart.    s(23) = (  0.5000000  0.8660254  0.0000000 )
                  (  0.8660254 -0.5000000  0.0000000 )
                  (  0.0000000  0.0000000  1.0000000 )


      isym = 24     inv. 180 deg rotation - cryst. axis [1,1,0]  

 cryst.   s(24) = (     0         -1          0      )
                  (    -1          0          0      )
                  (     0          0          1      )

 cart.    s(24) = (  0.5000000 -0.8660254  0.0000000 )
                  ( -0.8660254 -0.5000000  0.0000000 )
                  (  0.0000000  0.0000000  1.0000000 )


     point group D_6h(6/mmm)
     there are 12 classes
     the character table:

       E     2C6   2C3   C2    3C2'  3C2'' i     2S3   2S6   s_h   3s_d  3s_v 
A_1g   1.00  1.00  1.00  1.00  1.00  1.00  1.00  1.00  1.00  1.00  1.00  1.00
A_2g   1.00  1.00  1.00  1.00 -1.00 -1.00  1.00  1.00  1.00  1.00 -1.00 -1.00
B_1g   1.00 -1.00  1.00 -1.00  1.00 -1.00  1.00 -1.00  1.00 -1.00  1.00 -1.00
B_2g   1.00 -1.00  1.00 -1.00 -1.00  1.00  1.00 -1.00  1.00 -1.00 -1.00  1.00
E_1g   2.00  1.00 -1.00 -2.00  0.00  0.00  2.00  1.00 -1.00 -2.00  0.00  0.00
E_2g   2.00 -1.00 -1.00  2.00  0.00  0.00  2.00 -1.00 -1.00  2.00  0.00  0.00
A_1u   1.00  1.00  1.00  1.00  1.00  1.00 -1.00 -1.00 -1.00 -1.00 -1.00 -1.00
A_2u   1.00  1.00  1.00  1.00 -1.00 -1.00 -1.00 -1.00 -1.00 -1.00  1.00  1.00
B_1u   1.00 -1.00  1.00 -1.00  1.00 -1.00 -1.00  1.00 -1.00  1.00 -1.00  1.00
B_2u   1.00 -1.00  1.00 -1.00 -1.00  1.00 -1.00  1.00 -1.00  1.00  1.00 -1.00
E_1u   2.00  1.00 -1.00 -2.00  0.00  0.00 -2.00 -1.00  1.00  2.00  0.00  0.00
E_2u   2.00 -1.00 -1.00  2.00  0.00  0.00 -2.00  1.00  1.00 -2.00  0.00  0.00

     the symmetry operations in each class and the name of the first element:

     E        1
          identity                                               
     2C6      5    6
           60 deg rotation - cryst. axis [0,0,1]                 
     2C3      7    8
          120 deg rotation - cryst. axis [0,0,1]                 
     C2       2
          180 deg rotation - cart. axis [0,0,1]                  
     3C2'     4   12   11
          180 deg rotation - cart. axis [1,0,0]                  
     3C2''    3    9   10
          180 deg rotation - cart. axis [0,1,0]                  
     i       13
          inversion                                              
     2S3     17   18
          inv.  60 deg rotation - cryst. axis [0,0,1]            
     2S6     19   20
          inv. 120 deg rotation - cryst. axis [0,0,1]            
     s_h     14
          inv. 180 deg rotation - cart. axis [0,0,1]             
     3s_d    16   24   23
          inv. 180 deg rotation - cart. axis [1,0,0]             
     3s_v    15   21   22
          inv. 180 deg rotation - cart. axis [0,1,0]             

   Cartesian axes

     site n.     atom                  positions (alat units)
         1           C   tau(   1) = (   0.0000000   0.0000000   2.0686802  )
         2           C   tau(   2) = (  -0.0000000   0.5773503   2.0686802  )

   Crystallographic axes

     site n.     atom                  positions (cryst. coord.)
         1           C   tau(   1) = (  0.0000000  0.0000000  0.2500000  )
         2           C   tau(   2) = (  0.3333333  0.6666667  0.2500000  )

     number of k points=   127 (tetrahedron method)
                       cart. coord. in units 2pi/alat
        k(    1) = (   0.0000000   0.0000000   0.0000000), wk =   0.0015432
        k(    2) = (   0.0000000   0.0320750   0.0000000), wk =   0.0092593
        k(    3) = (   0.0000000   0.0641500   0.0000000), wk =   0.0092593
        k(    4) = (   0.0000000   0.0962250   0.0000000), wk =   0.0092593
        k(    5) = (   0.0000000   0.1283001   0.0000000), wk =   0.0092593
        k(    6) = (   0.0000000   0.1603751   0.0000000), wk =   0.0092593
        k(    7) = (   0.0000000   0.1924501   0.0000000), wk =   0.0092593
        k(    8) = (   0.0000000   0.2245251   0.0000000), wk =   0.0092593
        k(    9) = (   0.0000000   0.2566001   0.0000000), wk =   0.0092593
        k(   10) = (   0.0000000   0.2886751   0.0000000), wk =   0.0092593
        k(   11) = (   0.0000000   0.3207501   0.0000000), wk =   0.0092593
        k(   12) = (   0.0000000   0.3528252   0.0000000), wk =   0.0092593
        k(   13) = (   0.0000000   0.3849002   0.0000000), wk =   0.0092593
        k(   14) = (   0.0000000   0.4169752   0.0000000), wk =   0.0092593
        k(   15) = (   0.0000000   0.4490502   0.0000000), wk =   0.0092593
        k(   16) = (   0.0000000   0.4811252   0.0000000), wk =   0.0092593
        k(   17) = (   0.0000000   0.5132002   0.0000000), wk =   0.0092593
        k(   18) = (   0.0000000   0.5452753   0.0000000), wk =   0.0092593
        k(   19) = (   0.0000000  -0.5773503   0.0000000), wk =   0.0046296
        k(   20) = (   0.0277778   0.0481125   0.0000000), wk =   0.0092593
        k(   21) = (   0.0277778   0.0801875   0.0000000), wk =   0.0185185
        k(   22) = (   0.0277778   0.1122626   0.0000000), wk =   0.0185185
        k(   23) = (   0.0277778   0.1443376   0.0000000), wk =   0.0185185
        k(   24) = (   0.0277778   0.1764126   0.0000000), wk =   0.0185185
        k(   25) = (   0.0277778   0.2084876   0.0000000), wk =   0.0185185
        k(   26) = (   0.0277778   0.2405626   0.0000000), wk =   0.0185185
        k(   27) = (   0.0277778   0.2726376   0.0000000), wk =   0.0185185
        k(   28) = (   0.0277778   0.3047126   0.0000000), wk =   0.0185185
        k(   29) = (   0.0277778   0.3367877   0.0000000), wk =   0.0185185
        k(   30) = (   0.0277778   0.3688627   0.0000000), wk =   0.0185185
        k(   31) = (   0.0277778   0.4009377   0.0000000), wk =   0.0185185
        k(   32) = (   0.0277778   0.4330127   0.0000000), wk =   0.0185185
        k(   33) = (   0.0277778   0.4650877   0.0000000), wk =   0.0185185
        k(   34) = (   0.0277778   0.4971627   0.0000000), wk =   0.0185185
        k(   35) = (   0.0277778   0.5292377   0.0000000), wk =   0.0185185
        k(   36) = (   0.0277778   0.5613128   0.0000000), wk =   0.0185185
        k(   37) = (   0.0555556   0.0962250   0.0000000), wk =   0.0092593
        k(   38) = (   0.0555556   0.1283001   0.0000000), wk =   0.0185185
        k(   39) = (   0.0555556   0.1603751   0.0000000), wk =   0.0185185
        k(   40) = (   0.0555556   0.1924501   0.0000000), wk =   0.0185185
        k(   41) = (   0.0555556   0.2245251   0.0000000), wk =   0.0185185
        k(   42) = (   0.0555556   0.2566001   0.0000000), wk =   0.0185185
        k(   43) = (   0.0555556   0.2886751   0.0000000), wk =   0.0185185
        k(   44) = (   0.0555556   0.3207501   0.0000000), wk =   0.0185185
        k(   45) = (   0.0555556   0.3528252   0.0000000), wk =   0.0185185
        k(   46) = (   0.0555556   0.3849002   0.0000000), wk =   0.0185185
        k(   47) = (   0.0555556   0.4169752   0.0000000), wk =   0.0185185
        k(   48) = (   0.0555556   0.4490502   0.0000000), wk =   0.0185185
        k(   49) = (   0.0555556   0.4811252   0.0000000), wk =   0.0185185
        k(   50) = (   0.0555556   0.5132002   0.0000000), wk =   0.0185185
        k(   51) = (   0.0555556   0.5452753   0.0000000), wk =   0.0185185
        k(   52) = (   0.0555556   0.5773503   0.0000000), wk =   0.0092593
        k(   53) = (   0.0833333   0.1443376   0.0000000), wk =   0.0092593
        k(   54) = (   0.0833333   0.1764126   0.0000000), wk =   0.0185185
        k(   55) = (   0.0833333   0.2084876   0.0000000), wk =   0.0185185
        k(   56) = (   0.0833333   0.2405626   0.0000000), wk =   0.0185185
        k(   57) = (   0.0833333   0.2726376   0.0000000), wk =   0.0185185
        k(   58) = (   0.0833333   0.3047126   0.0000000), wk =   0.0185185
        k(   59) = (   0.0833333   0.3367877   0.0000000), wk =   0.0185185
        k(   60) = (   0.0833333   0.3688627   0.0000000), wk =   0.0185185
        k(   61) = (   0.0833333   0.4009377   0.0000000), wk =   0.0185185
        k(   62) = (   0.0833333   0.4330127   0.0000000), wk =   0.0185185
        k(   63) = (   0.0833333   0.4650877   0.0000000), wk =   0.0185185
        k(   64) = (   0.0833333   0.4971627   0.0000000), wk =   0.0185185
        k(   65) = (   0.0833333   0.5292377   0.0000000), wk =   0.0185185
        k(   66) = (   0.0833333   0.5613128   0.0000000), wk =   0.0185185
        k(   67) = (   0.1111111   0.1924501   0.0000000), wk =   0.0092593
        k(   68) = (   0.1111111   0.2245251   0.0000000), wk =   0.0185185
        k(   69) = (   0.1111111   0.2566001   0.0000000), wk =   0.0185185
        k(   70) = (   0.1111111   0.2886751   0.0000000), wk =   0.0185185
        k(   71) = (   0.1111111   0.3207501   0.0000000), wk =   0.0185185
        k(   72) = (   0.1111111   0.3528252   0.0000000), wk =   0.0185185
        k(   73) = (   0.1111111   0.3849002   0.0000000), wk =   0.0185185
        k(   74) = (   0.1111111   0.4169752   0.0000000), wk =   0.0185185
        k(   75) = (   0.1111111   0.4490502   0.0000000), wk =   0.0185185
        k(   76) = (   0.1111111   0.4811252   0.0000000), wk =   0.0185185
        k(   77) = (   0.1111111   0.5132002   0.0000000), wk =   0.0185185
        k(   78) = (   0.1111111   0.5452753   0.0000000), wk =   0.0185185
        k(   79) = (   0.1111111   0.5773503   0.0000000), wk =   0.0092593
        k(   80) = (   0.1388889   0.2405626   0.0000000), wk =   0.0092593
        k(   81) = (   0.1388889   0.2726376   0.0000000), wk =   0.0185185
        k(   82) = (   0.1388889   0.3047126   0.0000000), wk =   0.0185185
        k(   83) = (   0.1388889   0.3367877   0.0000000), wk =   0.0185185
        k(   84) = (   0.1388889   0.3688627   0.0000000), wk =   0.0185185
        k(   85) = (   0.1388889   0.4009377   0.0000000), wk =   0.0185185
        k(   86) = (   0.1388889   0.4330127   0.0000000), wk =   0.0185185
        k(   87) = (   0.1388889   0.4650877   0.0000000), wk =   0.0185185
        k(   88) = (   0.1388889   0.4971627   0.0000000), wk =   0.0185185
        k(   89) = (   0.1388889   0.5292377   0.0000000), wk =   0.0185185
        k(   90) = (   0.1388889   0.5613128   0.0000000), wk =   0.0185185
        k(   91) = (   0.1666667   0.2886751   0.0000000), wk =   0.0092593
        k(   92) = (   0.1666667   0.3207501   0.0000000), wk =   0.0185185
        k(   93) = (   0.1666667   0.3528252   0.0000000), wk =   0.0185185
        k(   94) = (   0.1666667   0.3849002   0.0000000), wk =   0.0185185
        k(   95) = (   0.1666667   0.4169752   0.0000000), wk =   0.0185185
        k(   96) = (   0.1666667   0.4490502   0.0000000), wk =   0.0185185
        k(   97) = (   0.1666667   0.4811252   0.0000000), wk =   0.0185185
        k(   98) = (   0.1666667   0.5132002   0.0000000), wk =   0.0185185
        k(   99) = (   0.1666667   0.5452753   0.0000000), wk =   0.0185185
        k(  100) = (   0.1666667   0.5773503   0.0000000), wk =   0.0092593
        k(  101) = (   0.1944444   0.3367877   0.0000000), wk =   0.0092593
        k(  102) = (   0.1944444   0.3688627   0.0000000), wk =   0.0185185
        k(  103) = (   0.1944444   0.4009377   0.0000000), wk =   0.0185185
        k(  104) = (   0.1944444   0.4330127   0.0000000), wk =   0.0185185
        k(  105) = (   0.1944444   0.4650877   0.0000000), wk =   0.0185185
        k(  106) = (   0.1944444   0.4971627   0.0000000), wk =   0.0185185
        k(  107) = (   0.1944444   0.5292377   0.0000000), wk =   0.0185185
        k(  108) = (   0.1944444   0.5613128   0.0000000), wk =   0.0185185
        k(  109) = (   0.2222222   0.3849002   0.0000000), wk =   0.0092593
        k(  110) = (   0.2222222   0.4169752   0.0000000), wk =   0.0185185
        k(  111) = (   0.2222222   0.4490502   0.0000000), wk =   0.0185185
        k(  112) = (   0.2222222   0.4811252   0.0000000), wk =   0.0185185
        k(  113) = (   0.2222222   0.5132002   0.0000000), wk =   0.0185185
        k(  114) = (   0.2222222   0.5452753   0.0000000), wk =   0.0185185
        k(  115) = (   0.2222222   0.5773503   0.0000000), wk =   0.0092593
        k(  116) = (   0.2500000   0.4330127   0.0000000), wk =   0.0092593
        k(  117) = (   0.2500000   0.4650877   0.0000000), wk =   0.0185185
        k(  118) = (   0.2500000   0.4971627   0.0000000), wk =   0.0185185
        k(  119) = (   0.2500000   0.5292377   0.0000000), wk =   0.0185185
        k(  120) = (   0.2500000   0.5613128   0.0000000), wk =   0.0185185
        k(  121) = (   0.2777778   0.4811252   0.0000000), wk =   0.0092593
        k(  122) = (   0.2777778   0.5132002   0.0000000), wk =   0.0185185
        k(  123) = (   0.2777778   0.5452753   0.0000000), wk =   0.0185185
        k(  124) = (   0.2777778   0.5773503   0.0000000), wk =   0.0092593
        k(  125) = (   0.3055556   0.5292377   0.0000000), wk =   0.0092593
        k(  126) = (   0.3055556   0.5613128   0.0000000), wk =   0.0185185
        k(  127) = (   0.3333333   0.5773503   0.0000000), wk =   0.0030864

                       cryst. coord.
        k(    1) = (   0.0000000   0.0000000   0.0000000), wk =   0.0015432
        k(    2) = (   0.0000000   0.0277778   0.0000000), wk =   0.0092593
        k(    3) = (   0.0000000   0.0555556   0.0000000), wk =   0.0092593
        k(    4) = (   0.0000000   0.0833333   0.0000000), wk =   0.0092593
        k(    5) = (   0.0000000   0.1111111   0.0000000), wk =   0.0092593
        k(    6) = (   0.0000000   0.1388889   0.0000000), wk =   0.0092593
        k(    7) = (   0.0000000   0.1666667   0.0000000), wk =   0.0092593
        k(    8) = (   0.0000000   0.1944444   0.0000000), wk =   0.0092593
        k(    9) = (   0.0000000   0.2222222   0.0000000), wk =   0.0092593
        k(   10) = (   0.0000000   0.2500000   0.0000000), wk =   0.0092593
        k(   11) = (   0.0000000   0.2777778   0.0000000), wk =   0.0092593
        k(   12) = (   0.0000000   0.3055556   0.0000000), wk =   0.0092593
        k(   13) = (   0.0000000   0.3333333   0.0000000), wk =   0.0092593
        k(   14) = (   0.0000000   0.3611111   0.0000000), wk =   0.0092593
        k(   15) = (   0.0000000   0.3888889   0.0000000), wk =   0.0092593
        k(   16) = (   0.0000000   0.4166667   0.0000000), wk =   0.0092593
        k(   17) = (   0.0000000   0.4444444   0.0000000), wk =   0.0092593
        k(   18) = (   0.0000000   0.4722222   0.0000000), wk =   0.0092593
        k(   19) = (   0.0000000  -0.5000000   0.0000000), wk =   0.0046296
        k(   20) = (   0.0277778   0.0277778   0.0000000), wk =   0.0092593
        k(   21) = (   0.0277778   0.0555556   0.0000000), wk =   0.0185185
        k(   22) = (   0.0277778   0.0833333   0.0000000), wk =   0.0185185
        k(   23) = (   0.0277778   0.1111111   0.0000000), wk =   0.0185185
        k(   24) = (   0.0277778   0.1388889   0.0000000), wk =   0.0185185
        k(   25) = (   0.0277778   0.1666667   0.0000000), wk =   0.0185185
        k(   26) = (   0.0277778   0.1944444   0.0000000), wk =   0.0185185
        k(   27) = (   0.0277778   0.2222222   0.0000000), wk =   0.0185185
        k(   28) = (   0.0277778   0.2500000   0.0000000), wk =   0.0185185
        k(   29) = (   0.0277778   0.2777778   0.0000000), wk =   0.0185185
        k(   30) = (   0.0277778   0.3055556   0.0000000), wk =   0.0185185
        k(   31) = (   0.0277778   0.3333333   0.0000000), wk =   0.0185185
        k(   32) = (   0.0277778   0.3611111   0.0000000), wk =   0.0185185
        k(   33) = (   0.0277778   0.3888889   0.0000000), wk =   0.0185185
        k(   34) = (   0.0277778   0.4166667   0.0000000), wk =   0.0185185
        k(   35) = (   0.0277778   0.4444444   0.0000000), wk =   0.0185185
        k(   36) = (   0.0277778   0.4722222   0.0000000), wk =   0.0185185
        k(   37) = (   0.0555556   0.0555556   0.0000000), wk =   0.0092593
        k(   38) = (   0.0555556   0.0833333   0.0000000), wk =   0.0185185
        k(   39) = (   0.0555556   0.1111111   0.0000000), wk =   0.0185185
        k(   40) = (   0.0555556   0.1388889   0.0000000), wk =   0.0185185
        k(   41) = (   0.0555556   0.1666667   0.0000000), wk =   0.0185185
        k(   42) = (   0.0555556   0.1944444   0.0000000), wk =   0.0185185
        k(   43) = (   0.0555556   0.2222222   0.0000000), wk =   0.0185185
        k(   44) = (   0.0555556   0.2500000   0.0000000), wk =   0.0185185
        k(   45) = (   0.0555556   0.2777778   0.0000000), wk =   0.0185185
        k(   46) = (   0.0555556   0.3055556   0.0000000), wk =   0.0185185
        k(   47) = (   0.0555556   0.3333333   0.0000000), wk =   0.0185185
        k(   48) = (   0.0555556   0.3611111   0.0000000), wk =   0.0185185
        k(   49) = (   0.0555556   0.3888889   0.0000000), wk =   0.0185185
        k(   50) = (   0.0555556   0.4166667   0.0000000), wk =   0.0185185
        k(   51) = (   0.0555556   0.4444444   0.0000000), wk =   0.0185185
        k(   52) = (   0.0555556   0.4722222   0.0000000), wk =   0.0092593
        k(   53) = (   0.0833333   0.0833333   0.0000000), wk =   0.0092593
        k(   54) = (   0.0833333   0.1111111   0.0000000), wk =   0.0185185
        k(   55) = (   0.0833333   0.1388889   0.0000000), wk =   0.0185185
        k(   56) = (   0.0833333   0.1666667   0.0000000), wk =   0.0185185
        k(   57) = (   0.0833333   0.1944444   0.0000000), wk =   0.0185185
        k(   58) = (   0.0833333   0.2222222   0.0000000), wk =   0.0185185
        k(   59) = (   0.0833333   0.2500000   0.0000000), wk =   0.0185185
        k(   60) = (   0.0833333   0.2777778   0.0000000), wk =   0.0185185
        k(   61) = (   0.0833333   0.3055556   0.0000000), wk =   0.0185185
        k(   62) = (   0.0833333   0.3333333   0.0000000), wk =   0.0185185
        k(   63) = (   0.0833333   0.3611111   0.0000000), wk =   0.0185185
        k(   64) = (   0.0833333   0.3888889   0.0000000), wk =   0.0185185
        k(   65) = (   0.0833333   0.4166667   0.0000000), wk =   0.0185185
        k(   66) = (   0.0833333   0.4444444   0.0000000), wk =   0.0185185
        k(   67) = (   0.1111111   0.1111111   0.0000000), wk =   0.0092593
        k(   68) = (   0.1111111   0.1388889   0.0000000), wk =   0.0185185
        k(   69) = (   0.1111111   0.1666667   0.0000000), wk =   0.0185185
        k(   70) = (   0.1111111   0.1944444   0.0000000), wk =   0.0185185
        k(   71) = (   0.1111111   0.2222222   0.0000000), wk =   0.0185185
        k(   72) = (   0.1111111   0.2500000   0.0000000), wk =   0.0185185
        k(   73) = (   0.1111111   0.2777778   0.0000000), wk =   0.0185185
        k(   74) = (   0.1111111   0.3055556   0.0000000), wk =   0.0185185
        k(   75) = (   0.1111111   0.3333333   0.0000000), wk =   0.0185185
        k(   76) = (   0.1111111   0.3611111   0.0000000), wk =   0.0185185
        k(   77) = (   0.1111111   0.3888889   0.0000000), wk =   0.0185185
        k(   78) = (   0.1111111   0.4166667   0.0000000), wk =   0.0185185
        k(   79) = (   0.1111111   0.4444444   0.0000000), wk =   0.0092593
        k(   80) = (   0.1388889   0.1388889   0.0000000), wk =   0.0092593
        k(   81) = (   0.1388889   0.1666667   0.0000000), wk =   0.0185185
        k(   82) = (   0.1388889   0.1944444   0.0000000), wk =   0.0185185
        k(   83) = (   0.1388889   0.2222222   0.0000000), wk =   0.0185185
        k(   84) = (   0.1388889   0.2500000   0.0000000), wk =   0.0185185
        k(   85) = (   0.1388889   0.2777778   0.0000000), wk =   0.0185185
        k(   86) = (   0.1388889   0.3055556   0.0000000), wk =   0.0185185
        k(   87) = (   0.1388889   0.3333333   0.0000000), wk =   0.0185185
        k(   88) = (   0.1388889   0.3611111   0.0000000), wk =   0.0185185
        k(   89) = (   0.1388889   0.3888889   0.0000000), wk =   0.0185185
        k(   90) = (   0.1388889   0.4166667   0.0000000), wk =   0.0185185
        k(   91) = (   0.1666667   0.1666667   0.0000000), wk =   0.0092593
        k(   92) = (   0.1666667   0.1944444   0.0000000), wk =   0.0185185
        k(   93) = (   0.1666667   0.2222222   0.0000000), wk =   0.0185185
        k(   94) = (   0.1666667   0.2500000   0.0000000), wk =   0.0185185
        k(   95) = (   0.1666667   0.2777778   0.0000000), wk =   0.0185185
        k(   96) = (   0.1666667   0.3055556   0.0000000), wk =   0.0185185
        k(   97) = (   0.1666667   0.3333333   0.0000000), wk =   0.0185185
        k(   98) = (   0.1666667   0.3611111   0.0000000), wk =   0.0185185
        k(   99) = (   0.1666667   0.3888889   0.0000000), wk =   0.0185185
        k(  100) = (   0.1666667   0.4166667   0.0000000), wk =   0.0092593
        k(  101) = (   0.1944444   0.1944444   0.0000000), wk =   0.0092593
        k(  102) = (   0.1944444   0.2222222   0.0000000), wk =   0.0185185
        k(  103) = (   0.1944444   0.2500000   0.0000000), wk =   0.0185185
        k(  104) = (   0.1944444   0.2777778   0.0000000), wk =   0.0185185
        k(  105) = (   0.1944444   0.3055556   0.0000000), wk =   0.0185185
        k(  106) = (   0.1944444   0.3333333   0.0000000), wk =   0.0185185
        k(  107) = (   0.1944444   0.3611111   0.0000000), wk =   0.0185185
        k(  108) = (   0.1944444   0.3888889   0.0000000), wk =   0.0185185
        k(  109) = (   0.2222222   0.2222222   0.0000000), wk =   0.0092593
        k(  110) = (   0.2222222   0.2500000   0.0000000), wk =   0.0185185
        k(  111) = (   0.2222222   0.2777778   0.0000000), wk =   0.0185185
        k(  112) = (   0.2222222   0.3055556   0.0000000), wk =   0.0185185
        k(  113) = (   0.2222222   0.3333333   0.0000000), wk =   0.0185185
        k(  114) = (   0.2222222   0.3611111   0.0000000), wk =   0.0185185
        k(  115) = (   0.2222222   0.3888889   0.0000000), wk =   0.0092593
        k(  116) = (   0.2500000   0.2500000   0.0000000), wk =   0.0092593
        k(  117) = (   0.2500000   0.2777778   0.0000000), wk =   0.0185185
        k(  118) = (   0.2500000   0.3055556   0.0000000), wk =   0.0185185
        k(  119) = (   0.2500000   0.3333333   0.0000000), wk =   0.0185185
        k(  120) = (   0.2500000   0.3611111   0.0000000), wk =   0.0185185
        k(  121) = (   0.2777778   0.2777778   0.0000000), wk =   0.0092593
        k(  122) = (   0.2777778   0.3055556   0.0000000), wk =   0.0185185
        k(  123) = (   0.2777778   0.3333333   0.0000000), wk =   0.0185185
        k(  124) = (   0.2777778   0.3611111   0.0000000), wk =   0.0092593
        k(  125) = (   0.3055556   0.3055556   0.0000000), wk =   0.0092593
        k(  126) = (   0.3055556   0.3333333   0.0000000), wk =   0.0185185
        k(  127) = (   0.3333333   0.3333333   0.0000000), wk =   0.0030864

     Dense  grid:    92515 G-vectors     FFT dimensions: (  30,  30, 250)

     Dynamical RAM for                 wfc:       0.70 MB

     Dynamical RAM for     wfc (w. buffer):       0.70 MB

     Dynamical RAM for           str. fact:       0.71 MB

     Dynamical RAM for           local pot:       0.00 MB

     Dynamical RAM for          nlocal pot:       1.41 MB

     Dynamical RAM for                qrad:       0.46 MB

     Dynamical RAM for          rho,v,vnew:       4.69 MB

     Dynamical RAM for           G-vectors:       3.00 MB

     Dynamical RAM for          h,s,v(r/c):       0.01 MB

     Dynamical RAM for          <psi|beta>:       0.00 MB

     Dynamical RAM for                 psi:       1.41 MB

     Dynamical RAM for                hpsi:       1.41 MB

     Dynamical RAM for                spsi:       1.41 MB

     Dynamical RAM for      wfcinit/wfcrot:       1.41 MB

     Dynamical RAM for           addusdens:      31.76 MB

     Estimated static dynamical RAM per process >      16.67 MB

     Estimated max dynamical RAM per process >      48.43 MB

     Estimated total dynamical RAM >      96.85 MB

     Check: negative core charge=   -0.000002

     The potential is recalculated from file :
     ./tmp/graphene1.save/charge-density


     negative rho (up, down):  1.299E-04 0.000E+00
     Starting wfcs are    8 randomized atomic wfcs
     Checking if some PAW data can be deallocated... 

     Band Structure Calculation
     Davidson diagonalization with overlap

     Computing kpt #:     1  of   127
     total cpu time spent up to now is       16.5 secs

     Computing kpt #:     2  of   127
     total cpu time spent up to now is       28.1 secs

     Computing kpt #:     3  of   127
     total cpu time spent up to now is       41.7 secs

     Computing kpt #:     4  of   127
     total cpu time spent up to now is       57.4 secs

     Computing kpt #:     5  of   127
     total cpu time spent up to now is       71.1 secs

     Computing kpt #:     6  of   127
     total cpu time spent up to now is       84.0 secs

     Computing kpt #:     7  of   127
     total cpu time spent up to now is       98.3 secs

     Computing kpt #:     8  of   127
     total cpu time spent up to now is      112.0 secs

     Computing kpt #:     9  of   127
     total cpu time spent up to now is      127.7 secs

     Computing kpt #:    10  of   127
     total cpu time spent up to now is      144.2 secs

     Computing kpt #:    11  of   127
     total cpu time spent up to now is      155.7 secs

     Computing kpt #:    12  of   127
     total cpu time spent up to now is      168.1 secs

     Computing kpt #:    13  of   127
     total cpu time spent up to now is      179.0 secs

     Computing kpt #:    14  of   127
     c_bands:  1 eigenvalues not converged
     total cpu time spent up to now is      196.8 secs

     Computing kpt #:    15  of   127
     total cpu time spent up to now is      208.5 secs

     Computing kpt #:    16  of   127
     total cpu time spent up to now is      219.2 secs

     Computing kpt #:    17  of   127
     total cpu time spent up to now is      230.5 secs

     Computing kpt #:    18  of   127
     total cpu time spent up to now is      239.9 secs

     Computing kpt #:    19  of   127
     total cpu time spent up to now is      244.8 secs

     Computing kpt #:    20  of   127
     total cpu time spent up to now is      249.9 secs

     Computing kpt #:    21  of   127
     total cpu time spent up to now is      255.5 secs

     Computing kpt #:    22  of   127
     total cpu time spent up to now is      260.8 secs

     Computing kpt #:    23  of   127
     total cpu time spent up to now is      266.7 secs

     Computing kpt #:    24  of   127
     total cpu time spent up to now is      272.6 secs

     Computing kpt #:    25  of   127
     total cpu time spent up to now is      278.2 secs

     Computing kpt #:    26  of   127
     total cpu time spent up to now is      284.1 secs

     Computing kpt #:    27  of   127
     total cpu time spent up to now is      290.2 secs

     Computing kpt #:    28  of   127
     total cpu time spent up to now is      297.1 secs

     Computing kpt #:    29  of   127
     total cpu time spent up to now is      302.9 secs

     Computing kpt #:    30  of   127
     total cpu time spent up to now is      308.6 secs

     Computing kpt #:    31  of   127
     total cpu time spent up to now is      315.3 secs

     Computing kpt #:    32  of   127
     total cpu time spent up to now is      321.6 secs

     Computing kpt #:    33  of   127
     total cpu time spent up to now is      327.4 secs

     Computing kpt #:    34  of   127
     total cpu time spent up to now is      332.6 secs

     Computing kpt #:    35  of   127
     total cpu time spent up to now is      337.7 secs

     Computing kpt #:    36  of   127
     c_bands:  1 eigenvalues not converged
     total cpu time spent up to now is      344.1 secs

     Computing kpt #:    37  of   127
     total cpu time spent up to now is      349.4 secs

     Computing kpt #:    38  of   127
     total cpu time spent up to now is      354.6 secs

     Computing kpt #:    39  of   127
     total cpu time spent up to now is      360.6 secs

     Computing kpt #:    40  of   127
     total cpu time spent up to now is      366.5 secs

     Computing kpt #:    41  of   127
     total cpu time spent up to now is      372.2 secs

     Computing kpt #:    42  of   127
     total cpu time spent up to now is      378.2 secs

     Computing kpt #:    43  of   127
     total cpu time spent up to now is      384.6 secs

     Computing kpt #:    44  of   127
     total cpu time spent up to now is      390.2 secs

     Computing kpt #:    45  of   127
     total cpu time spent up to now is      395.4 secs

     Computing kpt #:    46  of   127
     total cpu time spent up to now is      400.7 secs

     Computing kpt #:    47  of   127
     c_bands:  1 eigenvalues not converged
     total cpu time spent up to now is      408.6 secs

     Computing kpt #:    48  of   127
     total cpu time spent up to now is      414.3 secs

     Computing kpt #:    49  of   127
     total cpu time spent up to now is      419.7 secs

     Computing kpt #:    50  of   127
     total cpu time spent up to now is      424.9 secs

     Computing kpt #:    51  of   127
     total cpu time spent up to now is      430.5 secs

     Computing kpt #:    52  of   127
     total cpu time spent up to now is      434.8 secs

     Computing kpt #:    53  of   127
     total cpu time spent up to now is      440.6 secs

     Computing kpt #:    54  of   127
     total cpu time spent up to now is      446.6 secs

     Computing kpt #:    55  of   127
     total cpu time spent up to now is      452.5 secs

     Computing kpt #:    56  of   127
     total cpu time spent up to now is      458.2 secs

     Computing kpt #:    57  of   127
     total cpu time spent up to now is      464.3 secs

     Computing kpt #:    58  of   127
     total cpu time spent up to now is      470.1 secs

     Computing kpt #:    59  of   127
     total cpu time spent up to now is      475.5 secs

     Computing kpt #:    60  of   127
     total cpu time spent up to now is      480.9 secs

     Computing kpt #:    61  of   127
     total cpu time spent up to now is      486.0 secs

     Computing kpt #:    62  of   127
     c_bands:  1 eigenvalues not converged
     total cpu time spent up to now is      494.2 secs

     Computing kpt #:    63  of   127
     total cpu time spent up to now is      499.9 secs

     Computing kpt #:    64  of   127
     total cpu time spent up to now is      505.2 secs

     Computing kpt #:    65  of   127
     total cpu time spent up to now is      510.3 secs

     Computing kpt #:    66  of   127
     total cpu time spent up to now is      516.6 secs

     Computing kpt #:    67  of   127
     total cpu time spent up to now is      522.5 secs

     Computing kpt #:    68  of   127
     total cpu time spent up to now is      528.2 secs

     Computing kpt #:    69  of   127
     total cpu time spent up to now is      534.1 secs

     Computing kpt #:    70  of   127
     total cpu time spent up to now is      541.5 secs

     Computing kpt #:    71  of   127
     total cpu time spent up to now is      546.7 secs

     Computing kpt #:    72  of   127
     total cpu time spent up to now is      552.4 secs

     Computing kpt #:    73  of   127
     total cpu time spent up to now is      558.2 secs

     Computing kpt #:    74  of   127
     total cpu time spent up to now is      564.6 secs

     Computing kpt #:    75  of   127
     c_bands:  1 eigenvalues not converged
     total cpu time spent up to now is      575.0 secs

     Computing kpt #:    76  of   127
     total cpu time spent up to now is      582.3 secs

     Computing kpt #:    77  of   127
     total cpu time spent up to now is      588.1 secs

     Computing kpt #:    78  of   127
     total cpu time spent up to now is      593.1 secs

     Computing kpt #:    79  of   127
     total cpu time spent up to now is      597.9 secs

     Computing kpt #:    80  of   127
     total cpu time spent up to now is      603.4 secs

     Computing kpt #:    81  of   127
     total cpu time spent up to now is      610.4 secs

     Computing kpt #:    82  of   127
     total cpu time spent up to now is      615.9 secs

     Computing kpt #:    83  of   127
     total cpu time spent up to now is      620.9 secs

     Computing kpt #:    84  of   127
     total cpu time spent up to now is      625.8 secs

     Computing kpt #:    85  of   127
     total cpu time spent up to now is      631.0 secs

     Computing kpt #:    86  of   127
     total cpu time spent up to now is      636.5 secs

     Computing kpt #:    87  of   127
     c_bands:  1 eigenvalues not converged
     total cpu time spent up to now is      644.9 secs

     Computing kpt #:    88  of   127
     total cpu time spent up to now is      650.4 secs

     Computing kpt #:    89  of   127
     total cpu time spent up to now is      655.1 secs

     Computing kpt #:    90  of   127
     total cpu time spent up to now is      660.7 secs

     Computing kpt #:    91  of   127
     total cpu time spent up to now is      665.9 secs

     Computing kpt #:    92  of   127
     total cpu time spent up to now is      671.0 secs

     Computing kpt #:    93  of   127
     total cpu time spent up to now is      675.9 secs

     Computing kpt #:    94  of   127
     total cpu time spent up to now is      680.7 secs

     Computing kpt #:    95  of   127
     total cpu time spent up to now is      685.6 secs

     Computing kpt #:    96  of   127
     total cpu time spent up to now is      690.4 secs

     Computing kpt #:    97  of   127
     total cpu time spent up to now is      696.8 secs

     Computing kpt #:    98  of   127
     total cpu time spent up to now is      702.2 secs

     Computing kpt #:    99  of   127
     total cpu time spent up to now is      706.8 secs

     Computing kpt #:   100  of   127
     total cpu time spent up to now is      714.6 secs

     Computing kpt #:   101  of   127
     total cpu time spent up to now is      719.4 secs

     Computing kpt #:   102  of   127
     total cpu time spent up to now is      724.1 secs

     Computing kpt #:   103  of   127
     total cpu time spent up to now is      728.9 secs

     Computing kpt #:   104  of   127
     total cpu time spent up to now is      734.1 secs

     Computing kpt #:   105  of   127
     total cpu time spent up to now is      740.0 secs

     Computing kpt #:   106  of   127
     total cpu time spent up to now is      746.0 secs

     Computing kpt #:   107  of   127
     total cpu time spent up to now is      750.8 secs

     Computing kpt #:   108  of   127
     total cpu time spent up to now is      755.6 secs

     Computing kpt #:   109  of   127
     total cpu time spent up to now is      760.5 secs

     Computing kpt #:   110  of   127
     total cpu time spent up to now is      765.3 secs

     Computing kpt #:   111  of   127
     total cpu time spent up to now is      770.3 secs

     Computing kpt #:   112  of   127
     total cpu time spent up to now is      775.4 secs

     Computing kpt #:   113  of   127
     total cpu time spent up to now is      780.9 secs

     Computing kpt #:   114  of   127
     total cpu time spent up to now is      785.6 secs

     Computing kpt #:   115  of   127
     total cpu time spent up to now is      791.1 secs

     Computing kpt #:   116  of   127
     total cpu time spent up to now is      796.1 secs

     Computing kpt #:   117  of   127
     total cpu time spent up to now is      801.2 secs

     Computing kpt #:   118  of   127
     total cpu time spent up to now is      806.9 secs

     Computing kpt #:   119  of   127
     total cpu time spent up to now is      813.0 secs

     Computing kpt #:   120  of   127
     total cpu time spent up to now is      818.5 secs

     Computing kpt #:   121  of   127
     total cpu time spent up to now is      824.0 secs

     Computing kpt #:   122  of   127
     total cpu time spent up to now is      830.2 secs

     Computing kpt #:   123  of   127
     c_bands:  1 eigenvalues not converged
     total cpu time spent up to now is      837.0 secs

     Computing kpt #:   124  of   127
     total cpu time spent up to now is      842.5 secs

     Computing kpt #:   125  of   127
     total cpu time spent up to now is      849.5 secs

     Computing kpt #:   126  of   127
     total cpu time spent up to now is      854.8 secs

     Computing kpt #:   127  of   127
     total cpu time spent up to now is      859.3 secs

     ethr =  1.25E-12,  avg # of iterations = 66.6

     total cpu time spent up to now is      859.4 secs

     End of band structure calculation

          k = 0.0000 0.0000 0.0000 ( 11623 PWs)   bands (ev):

   -22.1409 -10.1613  -5.1488  -5.1488   0.8825   1.5566   1.6845   2.6945

     occupation numbers 
     1.0000   1.0000   1.0000   1.0000   0.0000   0.0000   0.0000   0.0000

          k = 0.0000 0.0321 0.0000 ( 11603 PWs)   bands (ev):

   -22.1220 -10.1384  -5.2263  -5.1916   0.9083   1.5828   1.7108   2.7207

     occupation numbers 
     1.0000   1.0000   1.0000   1.0000   0.0000   0.0000   0.0000   0.0000

          k = 0.0000 0.0642 0.0000 ( 11571 PWs)   bands (ev):

   -22.0654 -10.0697  -5.4535  -5.3156   0.9857   1.6615   1.7899   2.7991

     occupation numbers 
     1.0000   1.0000   1.0000   1.0000   0.0000   0.0000   0.0000   0.0000

          k = 0.0000 0.0962 0.0000 ( 11557 PWs)   bands (ev):

   -21.9711  -9.9555  -5.8156  -5.5096   1.1148   1.7926   1.9218   2.9298

     occupation numbers 
     1.0000   1.0000   1.0000   1.0000   0.0000   0.0000   0.0000   0.0000

          k = 0.0000 0.1283 0.0000 ( 11569 PWs)   bands (ev):

   -21.8393  -9.7960  -6.2922  -5.7579   1.2956   1.9761   2.1064   3.1127

     occupation numbers 
     1.0000   1.0000   1.0000   1.0000   0.0000   0.0000   0.0000   0.0000

          k = 0.0000 0.1604 0.0000 ( 11571 PWs)   bands (ev):

   -21.6701  -9.5918  -6.8608  -6.0438   1.5280   2.2118   2.3437   3.3477

     occupation numbers 
     1.0000   1.0000   1.0000   1.0000   0.0000   0.0000   0.0000   0.0000

          k = 0.0000 0.1925 0.0000 ( 11561 PWs)   bands (ev):

   -21.4636  -9.3434  -7.5001  -6.3514   1.8120   2.4998   2.6339   3.6345

     occupation numbers 
     1.0000   1.0000   1.0000   1.0000   0.0000   0.0000   0.0000   0.0000

          k = 0.0000 0.2245 0.0000 ( 11535 PWs)   bands (ev):

   -21.2203  -9.0518  -8.1909  -6.6675   2.1474   2.8395   2.9767   3.9727

     occupation numbers 
     1.0000   1.0000   1.0000   1.0000   0.0000   0.0000   0.0000   0.0000

          k = 0.0000 0.2566 0.0000 ( 11519 PWs)   bands (ev):

   -20.9402  -8.9173  -8.7183  -6.9807   2.5342   3.2304   3.3723   4.3606

     occupation numbers 
     1.0000   1.0000   1.0000   1.0000   0.0000   0.0000   0.0000   0.0000

          k = 0.0000 0.2887 0.0000 ( 11503 PWs)   bands (ev):

   -20.6240  -9.6660  -8.3444  -7.2824   2.9721   3.6699   3.8206   4.7869

     occupation numbers 
     1.0000   1.0000   1.0000   1.0000   0.0000   0.0000   0.0000   0.0000

          k = 0.0000 0.3208 0.0000 ( 11513 PWs)   bands (ev):

   -20.2720 -10.4260  -7.9324  -7.5657   3.4606   4.1337   4.3215   4.7168

     occupation numbers 
     1.0000   1.0000   1.0000   1.0000   0.0000   0.0000   0.0000   0.0000

          k = 0.0000 0.3528 0.0000 ( 11506 PWs)   bands (ev):

   -19.8849 -11.1884  -7.8251  -7.4858   3.8339   3.9994   4.7600   4.8747

     occupation numbers 
     1.0000   1.0000   1.0000   1.0000   0.0000   0.0000   0.0000   0.0000

          k = 0.0000 0.3849 0.0000 ( 11504 PWs)   bands (ev):

   -19.4634 -11.9461  -8.0565  -7.0093   3.0296   4.5869   5.3428   5.4792

     occupation numbers 
     1.0000   1.0000   1.0000   1.0000   0.0000   0.0000   0.0000   0.0000

          k = 0.0000 0.4170 0.0000 ( 11524 PWs)   bands (ev):

   -19.0088 -12.6926  -8.2568  -6.5106   2.2279   5.2184   5.9900   6.0644

     occupation numbers 
     1.0000   1.0000   1.0000   1.0000   0.0000   0.0000   0.0000   0.0000

          k = 0.0000 0.4491 0.0000 ( 11518 PWs)   bands (ev):

   -18.5226 -13.4225  -8.4236  -6.0021   1.4607   5.8292   6.1079   6.6900

     occupation numbers 
     1.0000   1.0000   1.0000   1.0000   0.0000   0.0000   0.0000   0.0000

          k = 0.0000 0.4811 0.0000 ( 11528 PWs)   bands (ev):

   -18.0079 -14.1295  -8.5549  -5.5055   0.7570   5.9273   6.6928   7.4406

     occupation numbers 
     1.0000   1.0000   1.0000   1.0000   0.0000   0.0000   0.0000   0.0000

          k = 0.0000 0.5132 0.0000 ( 11518 PWs)   bands (ev):

   -17.4721 -14.8042  -8.6497  -5.0596   0.1601   5.8976   7.4661   8.2396

     occupation numbers 
     1.0000   1.0000   1.0000   1.0000   0.0000   0.0000   0.0000   0.0000

          k = 0.0000 0.5453 0.0000 ( 11534 PWs)   bands (ev):

   -16.9431 -15.4171  -8.7068  -4.7306  -0.2607   5.8752   8.2925   9.0839

     occupation numbers 
     1.0000   1.0000   1.0000   1.0000   0.0000   0.0000   0.0000   0.0000

          k = 0.0000-0.5774 0.0000 ( 11544 PWs)   bands (ev):

   -16.6204 -15.7679  -8.7259  -4.6054  -0.4167   5.8673   9.0980   9.2365

     occupation numbers 
     1.0000   1.0000   1.0000   1.0000   0.0000   0.0000   0.0000   0.0000

          k = 0.0278 0.0481 0.0000 ( 11591 PWs)   bands (ev):

   -22.0842 -10.0926  -5.3766  -5.2771   0.9599   1.6352   1.7636   2.7729

     occupation numbers 
     1.0000   1.0000   1.0000   1.0000   0.0000   0.0000   0.0000   0.0000

          k = 0.0278 0.0802 0.0000 ( 11562 PWs)   bands (ev):

   -22.0088 -10.0011  -5.6659  -5.4415   1.0632   1.7401   1.8690   2.8775

     occupation numbers 
     1.0000   1.0000   1.0000   1.0000   0.0000   0.0000   0.0000   0.0000

          k = 0.0278 0.1123 0.0000 ( 11561 PWs)   bands (ev):

   -21.8958  -9.8643  -6.0786  -5.6694   1.2181   1.8974   2.0273   3.0343

     occupation numbers 
     1.0000   1.0000   1.0000   1.0000   0.0000   0.0000   0.0000   0.0000

          k = 0.0278 0.1443 0.0000 ( 11570 PWs)   bands (ev):

   -21.7452  -9.6824  -6.5945  -5.9432   1.4247   2.1071   2.2383   3.2433

     occupation numbers 
     1.0000   1.0000   1.0000   1.0000   0.0000   0.0000   0.0000   0.0000

          k = 0.0278 0.1764 0.0000 ( 11564 PWs)   bands (ev):

   -21.5574  -9.4561  -7.1926  -6.2459   1.6830   2.3689   2.5020   3.5042

     occupation numbers 
     1.0000   1.0000   1.0000   1.0000   0.0000   0.0000   0.0000   0.0000

          k = 0.0278 0.2085 0.0000 ( 11554 PWs)   bands (ev):

   -21.3325  -9.1861  -7.8528  -6.5627   1.9927   2.6828   2.8185   3.8168

     occupation numbers 
     1.0000   1.0000   1.0000   1.0000   0.0000   0.0000   0.0000   0.0000

          k = 0.0278 0.2406 0.0000 ( 11542 PWs)   bands (ev):

   -21.0708  -8.8734  -8.5575  -6.8813   2.3539   3.0483   3.1877   4.1803

     occupation numbers 
     1.0000   1.0000   1.0000   1.0000   0.0000   0.0000   0.0000   0.0000

          k = 0.0278 0.2726 0.0000 ( 11509 PWs)   bands (ev):

   -20.7727  -9.2920  -8.5196  -7.1918   2.7663   3.4641   3.6097   4.5909

     occupation numbers 
     1.0000   1.0000   1.0000   1.0000   0.0000   0.0000   0.0000   0.0000

          k = 0.0278 0.3047 0.0000 ( 11508 PWs)   bands (ev):

   -20.4386 -10.0440  -8.1264  -7.4866   3.2296   3.9240   4.0843   4.9539

     occupation numbers 
     1.0000   1.0000   1.0000   1.0000   0.0000   0.0000   0.0000   0.0000

          k = 0.0278 0.3368 0.0000 ( 11499 PWs)   bands (ev):

   -20.0690 -10.8035  -7.7596  -7.6968   3.7434   4.1741   4.5530   4.6115

     occupation numbers 
     1.0000   1.0000   1.0000   1.0000   0.0000   0.0000   0.0000   0.0000

          k = 0.0278 0.3689 0.0000 ( 11512 PWs)   bands (ev):

   -19.6647 -11.5622  -8.0063  -7.2346   3.4242   4.3069   5.0590   5.1908

     occupation numbers 
     1.0000   1.0000   1.0000   1.0000   0.0000   0.0000   0.0000   0.0000

          k = 0.0278 0.4009 0.0000 ( 11504 PWs)   bands (ev):

   -19.2266 -12.3134  -8.2230  -6.7459   2.6175   4.9181   5.6777   5.8191

     occupation numbers 
     1.0000   1.0000   1.0000   1.0000   0.0000   0.0000   0.0000   0.0000

          k = 0.0278 0.4330 0.0000 ( 11520 PWs)   bands (ev):

   -18.7561 -13.0509  -8.4071  -6.2403   1.8320   5.5661   6.1531   6.3517

     occupation numbers 
     1.0000   1.0000   1.0000   1.0000   0.0000   0.0000   0.0000   0.0000

          k = 0.0278 0.4651 0.0000 ( 11518 PWs)   bands (ev):

   -18.2553 -13.7692  -8.5566  -5.7342   1.0940   6.0059   6.3693   7.0769

     occupation numbers 
     1.0000   1.0000   1.0000   1.0000   0.0000   0.0000   0.0000   0.0000

          k = 0.0278 0.4972 0.0000 ( 11529 PWs)   bands (ev):

   -17.7289 -14.4609  -8.6700  -5.2563   0.4379   5.9974   7.0908   7.8513

     occupation numbers 
     1.0000   1.0000   1.0000   1.0000   0.0000   0.0000   0.0000   0.0000

          k = 0.0278 0.5292 0.0000 ( 11535 PWs)   bands (ev):

   -17.1902 -15.1108  -8.7461  -4.8581  -0.0810   5.9699   7.8921   8.6724

     occupation numbers 
     1.0000   1.0000   1.0000   1.0000   0.0000   0.0000   0.0000   0.0000

          k = 0.0278 0.5613 0.0000 ( 11534 PWs)   bands (ev):

   -16.7095 -15.6474  -8.7843  -4.6201  -0.3800   5.9545   8.7386   9.5337

     occupation numbers 
     1.0000   1.0000   1.0000   1.0000   0.0000   0.0000   0.0000   0.0000

          k = 0.0556 0.0962 0.0000 ( 11565 PWs)   bands (ev):

   -21.9146  -9.8871  -5.9963  -5.6493   1.1923   1.8712   2.0009   3.0082

     occupation numbers 
     1.0000   1.0000   1.0000   1.0000   0.0000   0.0000   0.0000   0.0000

          k = 0.0556 0.1283 0.0000 ( 11563 PWs)   bands (ev):

   -21.7829  -9.7278  -6.4337  -5.9175   1.3731   2.0547   2.1855   3.1911

     occupation numbers 
     1.0000   1.0000   1.0000   1.0000   0.0000   0.0000   0.0000   0.0000

          k = 0.0556 0.1604 0.0000 ( 11566 PWs)   bands (ev):

   -21.6137  -9.5238  -6.9638  -6.2237   1.6056   2.2904   2.4229   3.4260

     occupation numbers 
     1.0000   1.0000   1.0000   1.0000   0.0000   0.0000   0.0000   0.0000

          k = 0.0556 0.1925 0.0000 ( 11552 PWs)   bands (ev):

   -21.4074  -9.2758  -7.5696  -6.5490   1.8897   2.5783   2.7130   3.7128

     occupation numbers 
     1.0000   1.0000   1.0000   1.0000   0.0000   0.0000   0.0000   0.0000

          k = 0.0556 0.2245 0.0000 ( 11550 PWs)   bands (ev):

   -21.1642  -8.9846  -8.2331  -6.8791   2.2252   2.9180   3.0559   4.0510

     occupation numbers 
     1.0000   1.0000   1.0000   1.0000   0.0000   0.0000   0.0000   0.0000

          k = 0.0556 0.2566 0.0000 ( 11523 PWs)   bands (ev):

   -20.8844  -8.9378  -8.6515  -7.2030   2.6120   3.3090   3.4516   4.4391

     occupation numbers 
     1.0000   1.0000   1.0000   1.0000   0.0000   0.0000   0.0000   0.0000

          k = 0.0556 0.2887 0.0000 ( 11526 PWs)   bands (ev):

   -20.5684  -9.6696  -8.2781  -7.5127   3.0500   3.7487   3.8999   4.8639

     occupation numbers 
     1.0000   1.0000   1.0000   1.0000   0.0000   0.0000   0.0000   0.0000

          k = 0.0556 0.3208 0.0000 ( 11513 PWs)   bands (ev):

   -20.2168 -10.4166  -7.8666  -7.8016   3.5387   4.2065   4.4009   4.6613

     occupation numbers 
     1.0000   1.0000   1.0000   1.0000   0.0000   0.0000   0.0000   0.0000

          k = 0.0556 0.3528 0.0000 ( 11511 PWs)   bands (ev):

   -19.8300 -11.1690  -8.0651  -7.4205   3.7879   4.0778   4.8276   4.9543

     occupation numbers 
     1.0000   1.0000   1.0000   1.0000   0.0000   0.0000   0.0000   0.0000

          k = 0.0556 0.3849 0.0000 ( 11513 PWs)   bands (ev):

   -19.4090 -11.9188  -8.2993  -6.9444   2.9894   4.6661   5.4154   5.5597

     occupation numbers 
     1.0000   1.0000   1.0000   1.0000   0.0000   0.0000   0.0000   0.0000

          k = 0.0556 0.4170 0.0000 ( 11520 PWs)   bands (ev):

   -18.9550 -12.6592  -8.5016  -6.4459   2.1971   5.3010   6.0627   6.2096

     occupation numbers 
     1.0000   1.0000   1.0000   1.0000   0.0000   0.0000   0.0000   0.0000

          k = 0.0556 0.4491 0.0000 ( 11537 PWs)   bands (ev):

   -18.4695 -13.3843  -8.6696  -5.9373   1.4378   5.9627   6.3844   6.7618

     occupation numbers 
     1.0000   1.0000   1.0000   1.0000   0.0000   0.0000   0.0000   0.0000

          k = 0.0556 0.4811 0.0000 ( 11527 PWs)   bands (ev):

   -17.9557 -14.0875  -8.8018  -5.4401   0.7397   6.2536   6.7773   7.5103

     occupation numbers 
     1.0000   1.0000   1.0000   1.0000   0.0000   0.0000   0.0000   0.0000

          k = 0.0556 0.5132 0.0000 ( 11541 PWs)   bands (ev):

   -17.4211 -14.7590  -8.8970  -4.9926   0.1458   6.2322   7.5416   8.3057

     occupation numbers 
     1.0000   1.0000   1.0000   1.0000   0.0000   0.0000   0.0000   0.0000

          k = 0.0556 0.5453 0.0000 ( 11525 PWs)   bands (ev):

   -16.8937 -15.3692  -8.9545  -4.6616  -0.2743   6.2107   8.3654   9.1432

     occupation numbers 
     1.0000   1.0000   1.0000   1.0000   0.0000   0.0000   0.0000   0.0000

          k = 0.0556 0.5774 0.0000 ( 11522 PWs)   bands (ev):

   -16.5727 -15.7179  -8.9736  -4.5354  -0.4304   6.2030   9.1663   9.3087

     occupation numbers 
     1.0000   1.0000   1.0000   1.0000   0.0000   0.0000   0.0000   0.0000

          k = 0.0833 0.1443 0.0000 ( 11565 PWs)   bands (ev):

   -21.6325  -9.5464  -6.8730  -6.2304   1.5798   2.2643   2.3965   3.3999

     occupation numbers 
     1.0000   1.0000   1.0000   1.0000   0.0000   0.0000   0.0000   0.0000

          k = 0.0833 0.1764 0.0000 ( 11554 PWs)   bands (ev):

   -21.4449  -9.3207  -7.3924  -6.5777   1.8382   2.5260   2.6603   3.6608

     occupation numbers 
     1.0000   1.0000   1.0000   1.0000   0.0000   0.0000   0.0000   0.0000

          k = 0.0833 0.2085 0.0000 ( 11548 PWs)   bands (ev):

   -21.2203  -9.0515  -7.9834  -6.9344   2.1480   2.8399   2.9769   3.9734

     occupation numbers 
     1.0000   1.0000   1.0000   1.0000   0.0000   0.0000   0.0000   0.0000

          k = 0.0833 0.2406 0.0000 ( 11531 PWs)   bands (ev):

   -20.9590  -8.7397  -8.6325  -7.2844   2.5093   3.2053   3.3462   4.3370

     occupation numbers 
     1.0000   1.0000   1.0000   1.0000   0.0000   0.0000   0.0000   0.0000

          k = 0.0833 0.2726 0.0000 ( 11526 PWs)   bands (ev):

   -20.6613  -9.3239  -8.3868  -7.6181   2.9218   3.6213   3.7682   4.7480

     occupation numbers 
     1.0000   1.0000   1.0000   1.0000   0.0000   0.0000   0.0000   0.0000

          k = 0.0833 0.3047 0.0000 ( 11505 PWs)   bands (ev):

   -20.3278 -10.0431  -7.9946  -7.9295   3.3853   4.0809   4.2429   4.9133

     occupation numbers 
     1.0000   1.0000   1.0000   1.0000   0.0000   0.0000   0.0000   0.0000

          k = 0.0833 0.3368 0.0000 ( 11511 PWs)   bands (ev):

   -19.9589 -10.7777  -8.2142  -7.5660   3.8994   4.1023   4.6511   4.7702

     occupation numbers 
     1.0000   1.0000   1.0000   1.0000   0.0000   0.0000   0.0000   0.0000

          k = 0.0833 0.3689 0.0000 ( 11521 PWs)   bands (ev):

   -19.5555 -11.5174  -8.4689  -7.1048   3.3288   4.4635   5.2031   5.3500

     occupation numbers 
     1.0000   1.0000   1.0000   1.0000   0.0000   0.0000   0.0000   0.0000

          k = 0.0833 0.4009 0.0000 ( 11528 PWs)   bands (ev):

   -19.1185 -12.2539  -8.6912  -6.6168   2.5417   5.0767   5.8236   5.9817

     occupation numbers 
     1.0000   1.0000   1.0000   1.0000   0.0000   0.0000   0.0000   0.0000

          k = 0.0833 0.4330 0.0000 ( 11528 PWs)   bands (ev):

   -18.6492 -12.9802  -8.8791  -6.1114   1.7744   5.7358   6.4960   6.6527

     occupation numbers 
     1.0000   1.0000   1.0000   1.0000   0.0000   0.0000   0.0000   0.0000

          k = 0.0833 0.4651 0.0000 ( 11532 PWs)   bands (ev):

   -18.1501 -13.6895  -9.0310  -5.6045   1.0505   6.4145   6.7616   7.2177

     occupation numbers 
     1.0000   1.0000   1.0000   1.0000   0.0000   0.0000   0.0000   0.0000

          k = 0.0833 0.4972 0.0000 ( 11542 PWs)   bands (ev):

   -17.6257 -14.3741  -9.1459  -5.1244   0.4034   6.6398   7.2493   7.9859

     occupation numbers 
     1.0000   1.0000   1.0000   1.0000   0.0000   0.0000   0.0000   0.0000

          k = 0.0833 0.5292 0.0000 ( 11528 PWs)   bands (ev):

   -17.0897 -15.0182  -9.2229  -4.7225  -0.1120   6.6202   8.0404   8.7955

     occupation numbers 
     1.0000   1.0000   1.0000   1.0000   0.0000   0.0000   0.0000   0.0000

          k = 0.0833 0.5613 0.0000 ( 11516 PWs)   bands (ev):

   -16.6128 -15.5494  -9.2616  -4.4808  -0.4109   6.6058   8.8813   9.6277

     occupation numbers 
     1.0000   1.0000   1.0000   1.0000   0.0000   0.0000   0.0000   0.0000

          k = 0.1111 0.1925 0.0000 ( 11551 PWs)   bands (ev):

   -21.2390  -9.0738  -7.8819  -6.9716   2.1223   2.8138   2.9505   3.9475

     occupation numbers 
     1.0000   1.0000   1.0000   1.0000   0.0000   0.0000   0.0000   0.0000

          k = 0.1111 0.2245 0.0000 ( 11516 PWs)   bands (ev):

   -20.9963  -8.7838  -8.4359  -7.3709   2.4580   3.1534   3.2935   4.2858

     occupation numbers 
     1.0000   1.0000   1.0000   1.0000   0.0000   0.0000   0.0000   0.0000

          k = 0.1111 0.2566 0.0000 ( 11512 PWs)   bands (ev):

   -20.7171  -9.0506  -8.4521  -7.7519   2.8449   3.5445   3.6892   4.6745

     occupation numbers 
     1.0000   1.0000   1.0000   1.0000   0.0000   0.0000   0.0000   0.0000

          k = 0.1111 0.2887 0.0000 ( 11518 PWs)   bands (ev):

   -20.4019  -9.7135  -8.1032  -8.0803   3.2830   3.9847   4.1376   5.0649

     occupation numbers 
     1.0000   1.0000   1.0000   1.0000   0.0000   0.0000   0.0000   0.0000

          k = 0.1111 0.3208 0.0000 ( 11516 PWs)   bands (ev):

   -20.0512 -10.4095  -8.4212  -7.6705   3.7719   4.3330   4.5441   4.6387

     occupation numbers 
     1.0000   1.0000   1.0000   1.0000   0.0000   0.0000   0.0000   0.0000

          k = 0.1111 0.3528 0.0000 ( 11522 PWs)   bands (ev):

   -19.6656 -11.1241  -8.7043  -7.2259   3.6165   4.3112   5.0406   5.1924

     occupation numbers 
     1.0000   1.0000   1.0000   1.0000   0.0000   0.0000   0.0000   0.0000

          k = 0.1111 0.3849 0.0000 ( 11526 PWs)   bands (ev):

   -19.2461 -11.8457  -8.9519  -6.7512   2.8475   4.9002   5.6347   5.7986

     occupation numbers 
     1.0000   1.0000   1.0000   1.0000   0.0000   0.0000   0.0000   0.0000

          k = 0.1111 0.4170 0.0000 ( 11524 PWs)   bands (ev):

   -18.7938 -12.5649  -9.1631  -6.2536   2.0864   5.5380   6.2804   6.4567

     occupation numbers 
     1.0000   1.0000   1.0000   1.0000   0.0000   0.0000   0.0000   0.0000

          k = 0.1111 0.4491 0.0000 ( 11526 PWs)   bands (ev):

   -18.3105 -13.2737  -9.3370  -5.7448   1.3528   6.2215   6.9746   7.1548

     occupation numbers 
     1.0000   1.0000   1.0000   1.0000   0.0000   0.0000   0.0000   0.0000

          k = 0.1111 0.4811 0.0000 ( 11529 PWs)   bands (ev):

   -17.7995 -13.9643  -9.4730  -5.2453   0.6729   6.9264   7.2598   7.7141

     occupation numbers 
     1.0000   1.0000   1.0000   1.0000   0.0000   0.0000   0.0000   0.0000

          k = 0.1111 0.5132 0.0000 ( 11529 PWs)   bands (ev):

   -17.2684 -14.6257  -9.5706  -4.7931   0.0888   7.1550   7.7725   8.4930

     occupation numbers 
     1.0000   1.0000   1.0000   1.0000   0.0000   0.0000   0.0000   0.0000

          k = 0.1111 0.5453 0.0000 ( 11535 PWs)   bands (ev):

   -16.7458 -15.2273  -9.6293  -4.4555  -0.3292   7.1410   8.5836   9.2938

     occupation numbers 
     1.0000   1.0000   1.0000   1.0000   0.0000   0.0000   0.0000   0.0000

          k = 0.1111 0.5774 0.0000 ( 11532 PWs)   bands (ev):

   -16.4298 -15.5699  -9.6489  -4.3257  -0.4860   7.1341   9.3690   9.5241

     occupation numbers 
     1.0000   1.0000   1.0000   1.0000   0.0000   0.0000   0.0000   0.0000

          k = 0.1389 0.2406 0.0000 ( 11509 PWs)   bands (ev):

   -20.7358  -8.9368  -8.4739  -7.8199   2.8193   3.5188   3.6628   4.6496

     occupation numbers 
     1.0000   1.0000   1.0000   1.0000   0.0000   0.0000   0.0000   0.0000

          k = 0.1389 0.2726 0.0000 ( 11503 PWs)   bands (ev):

   -20.4390  -9.4956  -8.2459  -8.1232   3.2319   3.9352   4.0849   5.0618

     occupation numbers 
     1.0000   1.0000   1.0000   1.0000   0.0000   0.0000   0.0000   0.0000

          k = 0.1389 0.3047 0.0000 ( 11514 PWs)   bands (ev):

   -20.1067 -10.1109  -8.6282  -7.7334   3.6953   4.3894   4.5597   4.5759

     occupation numbers 
     1.0000   1.0000   1.0000   1.0000   0.0000   0.0000   0.0000   0.0000

          k = 0.1389 0.3368 0.0000 ( 11515 PWs)   bands (ev):

   -19.7392 -10.7697  -8.9619  -7.3071   3.8303   4.2094   4.9285   5.0871

     occupation numbers 
     1.0000   1.0000   1.0000   1.0000   0.0000   0.0000   0.0000   0.0000

          k = 0.1389 0.3689 0.0000 ( 11513 PWs)   bands (ev):

   -19.3375 -11.4552  -9.2490  -6.8481   3.0923   4.7735   5.4971   5.6672

     occupation numbers 
     1.0000   1.0000   1.0000   1.0000   0.0000   0.0000   0.0000   0.0000

          k = 0.1389 0.4009 0.0000 ( 11524 PWs)   bands (ev):

   -18.9026 -12.1527  -9.4924  -6.3619   2.3524   5.3871   6.1157   6.2997

     occupation numbers 
     1.0000   1.0000   1.0000   1.0000   0.0000   0.0000   0.0000   0.0000

          k = 0.1389 0.4330 0.0000 ( 11525 PWs)   bands (ev):

   -18.4360 -12.8503  -9.6940  -5.8571   1.6258   6.0489   6.7818   6.9843

     occupation numbers 
     1.0000   1.0000   1.0000   1.0000   0.0000   0.0000   0.0000   0.0000

          k = 0.1389 0.4651 0.0000 ( 11529 PWs)   bands (ev):

   -17.9402 -13.5381  -9.8548  -5.3489   0.9331   6.7562   7.4915   7.7139

     occupation numbers 
     1.0000   1.0000   1.0000   1.0000   0.0000   0.0000   0.0000   0.0000

          k = 0.1389 0.4972 0.0000 ( 11538 PWs)   bands (ev):

   -17.4200 -14.2063  -9.9753  -4.8641   0.3058   7.4916   7.8599   8.2370

     occupation numbers 
     1.0000   1.0000   1.0000   1.0000   0.0000   0.0000   0.0000   0.0000

          k = 0.1389 0.5292 0.0000 ( 11544 PWs)   bands (ev):

   -16.8894 -14.8373 -10.0556  -4.4535  -0.2018   7.7768   8.3417   8.9974

     occupation numbers 
     1.0000   1.0000   1.0000   1.0000   0.0000   0.0000   0.0000   0.0000

          k = 0.1389 0.5613 0.0000 ( 11546 PWs)   bands (ev):

   -16.4199 -15.3576 -10.0957  -4.2031  -0.5013   7.7701   9.1642   9.6803

     occupation numbers 
     1.0000   1.0000   1.0000   1.0000   0.0000   0.0000   0.0000   0.0000

          k = 0.1667 0.2887 0.0000 ( 11515 PWs)   bands (ev):

   -20.1251  -9.9836  -8.7260  -7.7543   3.6698   4.3772   4.5334   4.6205

     occupation numbers 
     1.0000   1.0000   1.0000   1.0000   0.0000   0.0000   0.0000   0.0000

          k = 0.1667 0.3208 0.0000 ( 11523 PWs)   bands (ev):

   -19.7760 -10.5291  -9.1568  -7.3478   3.9463   4.1584   4.8701   5.0345

     occupation numbers 
     1.0000   1.0000   1.0000   1.0000   0.0000   0.0000   0.0000   0.0000

          k = 0.1667 0.3528 0.0000 ( 11518 PWs)   bands (ev):

   -19.3925 -11.1313  -9.5221  -6.9065   3.2527   4.6973   5.4127   5.5883

     occupation numbers 
     1.0000   1.0000   1.0000   1.0000   0.0000   0.0000   0.0000   0.0000

          k = 0.1667 0.3849 0.0000 ( 11504 PWs)   bands (ev):

   -18.9754 -11.7744  -9.8233  -6.4348   2.5489   5.2858   6.0039   6.1947

     occupation numbers 
     1.0000   1.0000   1.0000   1.0000   0.0000   0.0000   0.0000   0.0000

          k = 0.1667 0.4170 0.0000 ( 11511 PWs)   bands (ev):

   -18.5261 -12.4392 -10.0683  -5.9391   1.8463   5.9232   6.6411   6.8535

     occupation numbers 
     1.0000   1.0000   1.0000   1.0000   0.0000   0.0000   0.0000   0.0000

          k = 0.1667 0.4491 0.0000 ( 11527 PWs)   bands (ev):

   -18.0466 -13.1097 -10.2633  -5.4303   1.1604   6.6080   7.3197   7.5644

     occupation numbers 
     1.0000   1.0000   1.0000   1.0000   0.0000   0.0000   0.0000   0.0000

          k = 0.1667 0.4811 0.0000 ( 11527 PWs)   bands (ev):

   -17.5403 -13.7726 -10.4125  -4.9273   0.5145   7.3374   8.0293   8.3237

     occupation numbers 
     1.0000   1.0000   1.0000   1.0000   0.0000   0.0000   0.0000   0.0000

          k = 0.1667 0.5132 0.0000 ( 11537 PWs)   bands (ev):

   -17.0152 -14.4134 -10.5179  -4.4659  -0.0517   8.0996   8.5433   8.7424

     occupation numbers 
     1.0000   1.0000   1.0000   1.0000   0.0000   0.0000   0.0000   0.0000

          k = 0.1667 0.5453 0.0000 ( 11542 PWs)   bands (ev):

   -16.5005 -14.9991 -10.5808  -4.1148  -0.4670   8.4788   8.9514   9.3708

     occupation numbers 
     1.0000   1.0000   1.0000   1.0000   0.0000   0.0000   0.0000   0.0000

          k = 0.1667 0.5774 0.0000 ( 11562 PWs)   bands (ev):

   -16.1917 -15.3317 -10.6017  -3.9773  -0.6261   8.4798   9.6579   9.6989

     occupation numbers 
     1.0000   1.0000   1.0000   1.0000   0.0000   0.0000   0.0000   0.0000

          k = 0.1944 0.3368 0.0000 ( 11513 PWs)   bands (ev):

   -19.4108 -10.9896  -9.6476  -6.9261   3.3088   4.6718   5.3841   5.5620

     occupation numbers 
     1.0000   1.0000   1.0000   1.0000   0.0000   0.0000   0.0000   0.0000

          k = 0.1944 0.3689 0.0000 ( 11512 PWs)   bands (ev):

   -19.0118 -11.5108 -10.0655  -6.4715   2.6540   5.2351   5.9470   6.1421

     occupation numbers 
     1.0000   1.0000   1.0000   1.0000   0.0000   0.0000   0.0000   0.0000

          k = 0.1944 0.4009 0.0000 ( 11526 PWs)   bands (ev):

   -18.5803 -12.0908 -10.3989  -5.9890   1.9909   5.8473   6.5550   6.7747

     occupation numbers 
     1.0000   1.0000   1.0000   1.0000   0.0000   0.0000   0.0000   0.0000

          k = 0.1944 0.4330 0.0000 ( 11515 PWs)   bands (ev):

   -18.1178 -12.7099 -10.6564  -5.4863   1.3305   6.5075   7.2019   7.4597

     occupation numbers 
     1.0000   1.0000   1.0000   1.0000   0.0000   0.0000   0.0000   0.0000

          k = 0.1944 0.4651 0.0000 ( 11524 PWs)   bands (ev):

   -17.6272 -13.3452 -10.8506  -4.9766   0.6893   7.2135   7.8739   8.1967

     occupation numbers 
     1.0000   1.0000   1.0000   1.0000   0.0000   0.0000   0.0000   0.0000

          k = 0.1944 0.4972 0.0000 ( 11536 PWs)   bands (ev):

   -17.1135 -13.9773 -10.9907  -4.4840   0.0947   7.9621   8.5345   8.9835

     occupation numbers 
     1.0000   1.0000   1.0000   1.0000   0.0000   0.0000   0.0000   0.0000

          k = 0.1944 0.5292 0.0000 ( 11540 PWs)   bands (ev):

   -16.5912 -14.5827 -11.0819  -4.0574  -0.4017   8.7429   9.0862   9.2821

     occupation numbers 
     1.0000   1.0000   1.0000   1.0000   0.0000   0.0000   0.0000   0.0000

          k = 0.1944 0.5613 0.0000 ( 11550 PWs)   bands (ev):

   -16.1316 -15.0850 -11.1270  -3.7892  -0.7053   9.2297   9.3805   9.5893

     occupation numbers 
     1.0000   1.0000   1.0000   1.0000   0.0000   0.0000   0.0000   0.0000

          k = 0.2222 0.3849 0.0000 ( 11499 PWs)   bands (ev):

   -18.5983 -11.9346 -10.5500  -6.0057   2.0414   5.8220   6.5260   6.7484

     occupation numbers 
     1.0000   1.0000   1.0000   1.0000   0.0000   0.0000   0.0000   0.0000

          k = 0.2222 0.4170 0.0000 ( 11521 PWs)   bands (ev):

   -18.1536 -12.4244 -10.9404  -5.5148   1.4220   6.4569   7.1417   7.4071

     occupation numbers 
     1.0000   1.0000   1.0000   1.0000   0.0000   0.0000   0.0000   0.0000

          k = 0.2222 0.4491 0.0000 ( 11532 PWs)   bands (ev):

   -17.6797 -12.9756 -11.2300  -5.0078   0.8061   7.1382   7.7766   8.1181

     occupation numbers 
     1.0000   1.0000   1.0000   1.0000   0.0000   0.0000   0.0000   0.0000

          k = 0.2222 0.4811 0.0000 ( 11530 PWs)   bands (ev):

   -17.1805 -13.5623 -11.4343  -4.5003   0.2111   7.8629   8.3840   8.8810

     occupation numbers 
     1.0000   1.0000   1.0000   1.0000   0.0000   0.0000   0.0000   0.0000

          k = 0.2222 0.5132 0.0000 ( 11530 PWs)   bands (ev):

   -16.6643 -14.1543 -11.5702  -4.0239  -0.3295   8.6256   8.8546   9.6937

     occupation numbers 
     1.0000   1.0000   1.0000   1.0000   0.0000   0.0000   0.0000   0.0000

          k = 0.2222 0.5453 0.0000 ( 11538 PWs)   bands (ev):

   -16.1602 -14.7085 -11.6483  -3.6464  -0.7462   9.0914   9.4131  10.0352

     occupation numbers 
     1.0000   1.0000   1.0000   1.0000   0.0000   0.0000   0.0000   0.0000

          k = 0.2222 0.5774 0.0000 ( 11556 PWs)   bands (ev):

   -15.8589 -15.0273 -11.6739  -3.4920  -0.9139   9.1520   9.9822  10.1386

     occupation numbers 
     1.0000   1.0000   1.0000   1.0000   0.0000   0.0000   0.0000   0.0000

          k = 0.2500 0.4330 0.0000 ( 11531 PWs)   bands (ev):

   -17.6972 -12.8058 -11.4036  -5.0184   0.8472   7.1130   7.7433   8.0918

     occupation numbers 
     1.0000   1.0000   1.0000   1.0000   0.0000   0.0000   0.0000   0.0000

          k = 0.2500 0.4651 0.0000 ( 11532 PWs)   bands (ev):

   -17.2143 -13.2592 -11.7530  -4.5097   0.2757   7.8127   8.3040   8.8286

     occupation numbers 
     1.0000   1.0000   1.0000   1.0000   0.0000   0.0000   0.0000   0.0000

          k = 0.2500 0.4972 0.0000 ( 11528 PWs)   bands (ev):

   -16.7104 -13.7739 -11.9872  -4.0072  -0.2743   8.5513   8.7019   9.6168

     occupation numbers 
     1.0000   1.0000   1.0000   1.0000   0.0000   0.0000   0.0000   0.0000

          k = 0.2500 0.5292 0.0000 ( 11534 PWs)   bands (ev):

   -16.1998 -14.3096 -12.1278  -3.5520  -0.7613   8.8694   9.3190  10.4535

     occupation numbers 
     1.0000   1.0000   1.0000   1.0000   0.0000   0.0000   0.0000   0.0000

          k = 0.2500 0.5613 0.0000 ( 11544 PWs)   bands (ev):

   -15.7503 -14.7768 -12.1936  -3.2443  -1.0852   8.9094  10.0892  10.7011

     occupation numbers 
     1.0000   1.0000   1.0000   1.0000   0.0000   0.0000   0.0000   0.0000

          k = 0.2778 0.4811 0.0000 ( 11519 PWs)   bands (ev):

   -16.7261 -13.5954 -12.1781  -4.0022  -0.2537   8.5263   8.6485   9.5906

     occupation numbers 
     1.0000   1.0000   1.0000   1.0000   0.0000   0.0000   0.0000   0.0000

          k = 0.2778 0.5132 0.0000 ( 11525 PWs)   bands (ev):

   -16.2235 -14.0066 -12.4685  -3.5056  -0.7643   8.7500   9.2699  10.4031

     occupation numbers 
     1.0000   1.0000   1.0000   1.0000   0.0000   0.0000   0.0000   0.0000

          k = 0.2778 0.5453 0.0000 ( 11537 PWs)   bands (ev):

   -15.7329 -14.4594 -12.6271  -3.0742  -1.2035   8.7415  10.0225  11.2413

     occupation numbers 
     1.0000   1.0000   1.0000   1.0000   0.0000   0.0000   0.0000   0.0000

          k = 0.2778 0.5774 0.0000 ( 11525 PWs)   bands (ev):

   -15.4317 -14.7517 -12.6766  -2.8724  -1.4078   8.7288  10.6492  10.8476

     occupation numbers 
     1.0000   1.0000   1.0000   1.0000   0.0000   0.0000   0.0000   0.0000

          k = 0.3056 0.5292 0.0000 ( 11541 PWs)   bands (ev):

   -15.7333 -14.2983 -12.8212  -3.0125  -1.2469   8.6822   9.9990  11.2358

     occupation numbers 
     1.0000   1.0000   1.0000   1.0000   0.0000   0.0000   0.0000   0.0000

          k = 0.3056 0.5613 0.0000 ( 11533 PWs)   bands (ev):

   -15.2888 -14.6409 -13.0010  -2.5959  -1.6573   8.6256  10.6851  11.2559

     occupation numbers 
     1.0000   1.0000   1.0000   1.0000  -0.0000   0.0000   0.0000   0.0000

          k = 0.3333 0.5774 0.0000 ( 11535 PWs)   bands (ev):

   -14.9110 -14.9110 -13.1460  -2.1222  -2.1222   8.5819  11.1428  11.1428

     occupation numbers 
     1.0000   1.0000   1.0000   1.0000   0.0001   0.0000   0.0000   0.0000

     the Fermi energy is    -2.1222 ev
     (compare with:    -2.1222 eV, computed in scf)

     Writing output data file ./tmp/graphene1.save/

     init_run     :      1.22s CPU      2.72s WALL (       1 calls)
     electrons    :    743.02s CPU    855.54s WALL (       1 calls)

     Called by init_run:
     wfcinit      :      0.00s CPU      0.00s WALL (       1 calls)
     wfcinit:atom :      0.24s CPU      0.28s WALL (     127 calls)
     wfcinit:wfcr :     16.19s CPU     18.61s WALL (     127 calls)
     potinit      :      0.29s CPU      0.66s WALL (       1 calls)
     hinit0       :      0.59s CPU      1.23s WALL (       1 calls)

     Called by electrons:
     c_bands      :    742.97s CPU    855.49s WALL (       1 calls)
     v_of_rho     :      0.17s CPU      0.41s WALL (       1 calls)
     v_h          :      0.02s CPU      0.04s WALL (       1 calls)
     v_xc         :      0.16s CPU      0.38s WALL (       1 calls)
     newd         :      0.08s CPU      0.22s WALL (       1 calls)
     PAW_pot      :      0.10s CPU      0.20s WALL (       1 calls)

     Called by c_bands:
     init_us_2    :      0.25s CPU      0.32s WALL (     127 calls)
     cegterg      :    722.74s CPU    824.80s WALL (     483 calls)

     Called by sum_band:

     Called by *egterg:
     cdiaghg      :      1.87s CPU      2.48s WALL (    8584 calls)
     cegterg:over :     56.21s CPU     63.15s WALL (    8457 calls)
     cegterg:upda :     21.31s CPU     24.65s WALL (    8457 calls)
     cegterg:last :     60.00s CPU     68.39s WALL (    4625 calls)
     h_psi        :    541.68s CPU    620.51s WALL (    9067 calls)
     s_psi        :     21.63s CPU     25.18s WALL (    9067 calls)
     g_psi        :      2.87s CPU      3.25s WALL (    8457 calls)

     Called by h_psi:
     h_psi:calbec :     29.60s CPU     33.95s WALL (    9067 calls)
     vloc_psi     :    487.05s CPU    558.05s WALL (    9067 calls)
     add_vuspsi   :     22.90s CPU     26.15s WALL (    9067 calls)

     General routines
     calbec       :     29.51s CPU     33.89s WALL (    9067 calls)
     fft          :      0.13s CPU      0.26s WALL (      12 calls)
     fftw         :    417.07s CPU    478.64s WALL (   76522 calls)
     davcio       :      0.15s CPU      8.10s WALL (     254 calls)

     Parallel routines
     fft_scatt_xy :     74.09s CPU     84.54s WALL (   76534 calls)
     fft_scatt_yz :    108.02s CPU    125.34s WALL (   76534 calls)

     PAW routines
     PAW_pot      :      0.10s CPU      0.20s WALL (       1 calls)

     PWSCF        :  12m25.35s CPU  14m24.02s WALL


   This run was terminated on:  10:31: 3  25Aug2023            

=------------------------------------------------------------------------------=
   JOB DONE.
=------------------------------------------------------------------------------=
