
     Program PROJWFC v.6.7MaX starts on 28Aug2023 at 22:19:11 

     This program is part of the open-source Quantum ESPRESSO suite
     for quantum simulation of materials; please cite
         "P. Giannozzi et al., J. Phys.:Condens. Matter 21 395502 (2009);
         "P. Giannozzi et al., J. Phys.:Condens. Matter 29 465901 (2017);
          URL http://www.quantum-espresso.org", 
     in publications or presentations arising from this work. More details at
     http://www.quantum-espresso.org/quote

     Parallel version (MPI), running on     1 processors

     MPI processes distributed on     1 nodes

     Reading xml data from directory:

     ./tmp/graphene1.save/
     file C.pbe-n-kjpaw_psl.1.0.0.UPF: wavefunction(s)  2S 2P renormalized

     IMPORTANT: XC functional enforced from input :
     Exchange-correlation= PBE
                           (   1   4   3   4   0   0   0)
     Any further DFT definition will be discarded
     Please, verify this is what you really want


     G-vector sticks info
     --------------------
     sticks:   dense  smooth     PW     G-vecs:    dense   smooth      PW
     Sum         583     583    163                92515    92515   14837


     Check: negative core charge=   -0.000002

     negative rho (up, down):  1.299E-04 0.000E+00

     Gaussian broadening (read from input): ngauss,degauss=   0    0.010000


     Calling projwave .... 

  Problem Sizes 
  natomwfc =            8
  nbnd     =            8
  nkstot   =          127
  npwx     =        11623
  nkb      =           16


     Atomic states used for projection
     (read from pseudopotential files):

     state #   1: atom   1 (C  ), wfc  1 (l=0 m= 1)
     state #   2: atom   1 (C  ), wfc  2 (l=1 m= 1)
     state #   3: atom   1 (C  ), wfc  2 (l=1 m= 2)
     state #   4: atom   1 (C  ), wfc  2 (l=1 m= 3)
     state #   5: atom   2 (C  ), wfc  1 (l=0 m= 1)
     state #   6: atom   2 (C  ), wfc  2 (l=1 m= 1)
     state #   7: atom   2 (C  ), wfc  2 (l=1 m= 2)
     state #   8: atom   2 (C  ), wfc  2 (l=1 m= 3)

 k =   0.0000000000  0.0000000000  0.0000000000
==== e(   1) =   -22.14085 eV ==== 
     psi = 0.492*[#   1]+0.492*[#   5]
    |psi|^2 = 0.983
==== e(   2) =   -10.16126 eV ==== 
     psi = 0.471*[#   2]+0.471*[#   6]
    |psi|^2 = 0.942
==== e(   3) =    -5.14881 eV ==== 
     psi = 0.249*[#   3]+0.249*[#   4]+0.249*[#   7]+0.249*[#   8]
    |psi|^2 = 0.997
==== e(   4) =    -5.14881 eV ==== 
     psi = 0.249*[#   3]+0.249*[#   4]+0.249*[#   7]+0.249*[#   8]
    |psi|^2 = 0.997
==== e(   5) =     0.88249 eV ==== 
     psi = 0.003*[#   1]+0.003*[#   5]
    |psi|^2 = 0.007
==== e(   6) =     1.55655 eV ==== 
     psi = 0.009*[#   2]+0.009*[#   6]
    |psi|^2 = 0.018
==== e(   7) =     1.68445 eV ==== 

    |psi|^2 = 0.001
==== e(   8) =     2.69450 eV ==== 
     psi = 0.008*[#   2]+0.008*[#   6]
    |psi|^2 = 0.015

 k =   0.0000000000  0.0320750150  0.0000000000
==== e(   1) =   -22.12198 eV ==== 
     psi = 0.488*[#   1]+0.488*[#   5]+0.002*[#   3]+0.002*[#   4]+0.002*[#   7]
          +0.002*[#   8]
    |psi|^2 = 0.983
==== e(   2) =   -10.13836 eV ==== 
     psi = 0.471*[#   2]+0.471*[#   6]
    |psi|^2 = 0.943
==== e(   3) =    -5.22633 eV ==== 
     psi = 0.248*[#   3]+0.248*[#   4]+0.248*[#   7]+0.248*[#   8]+0.002*[#   1]
          +0.002*[#   5]
    |psi|^2 = 0.997
==== e(   4) =    -5.19157 eV ==== 
     psi = 0.249*[#   3]+0.249*[#   4]+0.249*[#   7]+0.249*[#   8]
    |psi|^2 = 0.997
==== e(   5) =     0.90830 eV ==== 
     psi = 0.003*[#   1]+0.003*[#   5]
    |psi|^2 = 0.009
==== e(   6) =     1.58278 eV ==== 
     psi = 0.009*[#   2]+0.009*[#   6]
    |psi|^2 = 0.018
==== e(   7) =     1.71082 eV ==== 

    |psi|^2 = 0.001
==== e(   8) =     2.72065 eV ==== 
     psi = 0.008*[#   2]+0.008*[#   6]
    |psi|^2 = 0.015

 k =   0.0000000000  0.0641500299  0.0000000000
==== e(   1) =   -22.06538 eV ==== 
     psi = 0.478*[#   1]+0.478*[#   5]+0.007*[#   3]+0.007*[#   4]+0.007*[#   7]
          +0.007*[#   8]
    |psi|^2 = 0.983
==== e(   2) =   -10.06970 eV ==== 
     psi = 0.472*[#   2]+0.472*[#   6]
    |psi|^2 = 0.945
==== e(   3) =    -5.45350 eV ==== 
     psi = 0.246*[#   3]+0.246*[#   4]+0.246*[#   7]+0.246*[#   8]+0.007*[#   1]
          +0.007*[#   5]
    |psi|^2 = 0.997
==== e(   4) =    -5.31565 eV ==== 
     psi = 0.249*[#   3]+0.249*[#   4]+0.249*[#   7]+0.249*[#   8]
    |psi|^2 = 0.997
==== e(   5) =     0.98574 eV ==== 
     psi = 0.002*[#   3]+0.002*[#   4]+0.002*[#   7]+0.002*[#   8]+0.002*[#   1]
          +0.002*[#   5]
    |psi|^2 = 0.014
==== e(   6) =     1.66147 eV ==== 
     psi = 0.009*[#   2]+0.009*[#   6]
    |psi|^2 = 0.017
==== e(   7) =     1.78993 eV ==== 

    |psi|^2 = 0.002
==== e(   8) =     2.79910 eV ==== 
     psi = 0.007*[#   2]+0.007*[#   6]
    |psi|^2 = 0.015

 k =   0.0000000000  0.0962250449  0.0000000000
==== e(   1) =   -21.97111 eV ==== 
     psi = 0.462*[#   1]+0.462*[#   5]+0.015*[#   3]+0.015*[#   4]+0.015*[#   7]
          +0.015*[#   8]
    |psi|^2 = 0.983
==== e(   2) =    -9.95548 eV ==== 
     psi = 0.474*[#   2]+0.474*[#   6]
    |psi|^2 = 0.947
==== e(   3) =    -5.81560 eV ==== 
     psi = 0.241*[#   3]+0.241*[#   4]+0.241*[#   7]+0.241*[#   8]+0.016*[#   1]
          +0.016*[#   5]
    |psi|^2 = 0.997
==== e(   4) =    -5.50965 eV ==== 
     psi = 0.249*[#   3]+0.249*[#   4]+0.249*[#   7]+0.249*[#   8]
    |psi|^2 = 0.997
==== e(   5) =     1.11484 eV ==== 
     psi = 0.005*[#   3]+0.005*[#   4]+0.005*[#   7]+0.005*[#   8]+0.001*[#   1]
          +0.001*[#   5]
    |psi|^2 = 0.021
==== e(   6) =     1.79258 eV ==== 
     psi = 0.008*[#   2]+0.008*[#   6]
    |psi|^2 = 0.016
==== e(   7) =     1.92178 eV ==== 

    |psi|^2 = 0.003
==== e(   8) =     2.92980 eV ==== 
     psi = 0.007*[#   2]+0.007*[#   6]
    |psi|^2 = 0.014

 k =   0.0000000000  0.1283000598  0.0000000000
==== e(   1) =   -21.83929 eV ==== 
     psi = 0.443*[#   1]+0.443*[#   5]+0.024*[#   3]+0.024*[#   4]+0.024*[#   7]
          +0.024*[#   8]
    |psi|^2 = 0.982
==== e(   2) =    -9.79601 eV ==== 
     psi = 0.476*[#   2]+0.476*[#   6]
    |psi|^2 = 0.951
==== e(   3) =    -6.29216 eV ==== 
     psi = 0.236*[#   3]+0.236*[#   4]+0.236*[#   7]+0.236*[#   8]+0.026*[#   1]
          +0.026*[#   5]
    |psi|^2 = 0.996
==== e(   4) =    -5.75794 eV ==== 
     psi = 0.249*[#   3]+0.249*[#   4]+0.249*[#   7]+0.249*[#   8]
    |psi|^2 = 0.997
==== e(   5) =     1.29560 eV ==== 
     psi = 0.007*[#   3]+0.007*[#   4]+0.007*[#   7]+0.007*[#   8]
    |psi|^2 = 0.028
==== e(   6) =     1.97607 eV ==== 
     psi = 0.008*[#   2]+0.008*[#   6]
    |psi|^2 = 0.015
==== e(   7) =     2.10638 eV ==== 

    |psi|^2 = 0.003
==== e(   8) =     3.11270 eV ==== 
     psi = 0.007*[#   2]+0.007*[#   6]
    |psi|^2 = 0.013

 k =   0.0000000000  0.1603750748  0.0000000000
==== e(   1) =   -21.67007 eV ==== 
     psi = 0.422*[#   1]+0.422*[#   5]+0.035*[#   3]+0.035*[#   4]+0.035*[#   7]
          +0.035*[#   8]
    |psi|^2 = 0.982
==== e(   2) =    -9.59176 eV ==== 
     psi = 0.478*[#   2]+0.478*[#   6]
    |psi|^2 = 0.956
==== e(   3) =    -6.86079 eV ==== 
     psi = 0.230*[#   3]+0.230*[#   4]+0.230*[#   7]+0.230*[#   8]+0.039*[#   1]
          +0.039*[#   5]
    |psi|^2 = 0.995
==== e(   4) =    -6.04377 eV ==== 
     psi = 0.249*[#   3]+0.249*[#   4]+0.249*[#   7]+0.249*[#   8]
    |psi|^2 = 0.997
==== e(   5) =     1.52800 eV ==== 
     psi = 0.009*[#   3]+0.009*[#   4]+0.009*[#   7]+0.009*[#   8]
    |psi|^2 = 0.034
==== e(   6) =     2.21184 eV ==== 
     psi = 0.007*[#   2]+0.007*[#   6]
    |psi|^2 = 0.014
==== e(   7) =     2.34375 eV ==== 

    |psi|^2 = 0.004
==== e(   8) =     3.34767 eV ==== 
     psi = 0.006*[#   2]+0.006*[#   6]
    |psi|^2 = 0.012

 k =   0.0000000000  0.1924500897  0.0000000000
==== e(   1) =   -21.46363 eV ==== 
     psi = 0.400*[#   1]+0.400*[#   5]+0.045*[#   3]+0.045*[#   4]+0.045*[#   7]
          +0.045*[#   8]
    |psi|^2 = 0.981
==== e(   2) =    -9.34340 eV ==== 
     psi = 0.480*[#   2]+0.480*[#   6]
    |psi|^2 = 0.961
==== e(   3) =    -7.50006 eV ==== 
     psi = 0.223*[#   3]+0.223*[#   4]+0.223*[#   7]+0.223*[#   8]+0.052*[#   1]
          +0.052*[#   5]
    |psi|^2 = 0.994
==== e(   4) =    -6.35145 eV ==== 
     psi = 0.249*[#   3]+0.249*[#   4]+0.249*[#   7]+0.249*[#   8]
    |psi|^2 = 0.997
==== e(   5) =     1.81198 eV ==== 
     psi = 0.010*[#   3]+0.010*[#   4]+0.010*[#   7]+0.010*[#   8]
    |psi|^2 = 0.038
==== e(   6) =     2.49975 eV ==== 
     psi = 0.006*[#   2]+0.006*[#   6]
    |psi|^2 = 0.012
==== e(   7) =     2.63387 eV ==== 
     psi = 0.001*[#   3]+0.001*[#   4]+0.001*[#   7]+0.001*[#   8]
    |psi|^2 = 0.004
==== e(   8) =     3.63450 eV ==== 
     psi = 0.005*[#   2]+0.005*[#   6]
    |psi|^2 = 0.010

 k =   0.0000000000  0.2245251047  0.0000000000
==== e(   1) =   -21.22025 eV ==== 
     psi = 0.379*[#   1]+0.379*[#   5]+0.056*[#   3]+0.056*[#   4]+0.056*[#   7]
          +0.056*[#   8]
    |psi|^2 = 0.981
==== e(   2) =    -9.05182 eV ==== 
     psi = 0.483*[#   2]+0.483*[#   6]
    |psi|^2 = 0.966
==== e(   3) =    -8.19094 eV ==== 
     psi = 0.216*[#   3]+0.216*[#   4]+0.216*[#   7]+0.216*[#   8]+0.065*[#   1]
          +0.065*[#   5]
    |psi|^2 = 0.993
==== e(   4) =    -6.66746 eV ==== 
     psi = 0.249*[#   3]+0.249*[#   4]+0.249*[#   7]+0.249*[#   8]
    |psi|^2 = 0.997
==== e(   5) =     2.14744 eV ==== 
     psi = 0.010*[#   3]+0.010*[#   4]+0.010*[#   7]+0.010*[#   8]
    |psi|^2 = 0.040
==== e(   6) =     2.83950 eV ==== 
     psi = 0.005*[#   2]+0.005*[#   6]
    |psi|^2 = 0.011
==== e(   7) =     2.97673 eV ==== 

    |psi|^2 = 0.004
==== e(   8) =     3.97268 eV ==== 
     psi = 0.005*[#   2]+0.005*[#   6]
    |psi|^2 = 0.009

 k =   0.0000000000  0.2566001196  0.0000000000
==== e(   1) =   -20.94024 eV ==== 
     psi = 0.359*[#   1]+0.359*[#   5]+0.066*[#   3]+0.066*[#   4]+0.066*[#   7]
          +0.066*[#   8]
    |psi|^2 = 0.981
==== e(   2) =    -8.91734 eV ==== 
     psi = 0.209*[#   3]+0.209*[#   4]+0.209*[#   7]+0.209*[#   8]+0.078*[#   1]
          +0.078*[#   5]
    |psi|^2 = 0.993
==== e(   3) =    -8.71825 eV ==== 
     psi = 0.486*[#   2]+0.486*[#   6]
    |psi|^2 = 0.972
==== e(   4) =    -6.98072 eV ==== 
     psi = 0.249*[#   3]+0.249*[#   4]+0.249*[#   7]+0.249*[#   8]
    |psi|^2 = 0.997
==== e(   5) =     2.53421 eV ==== 
     psi = 0.009*[#   3]+0.009*[#   4]+0.009*[#   7]+0.009*[#   8]
    |psi|^2 = 0.038
==== e(   6) =     3.23039 eV ==== 
     psi = 0.005*[#   2]+0.005*[#   6]
    |psi|^2 = 0.010
==== e(   7) =     3.37232 eV ==== 

    |psi|^2 = 0.004
==== e(   8) =     4.36063 eV ==== 
     psi = 0.005*[#   2]+0.005*[#   6]
    |psi|^2 = 0.009

 k =   0.0000000000  0.2886751346  0.0000000000
==== e(   1) =   -20.62400 eV ==== 
     psi = 0.340*[#   1]+0.340*[#   5]+0.075*[#   3]+0.075*[#   4]+0.075*[#   7]
          +0.075*[#   8]
    |psi|^2 = 0.980
==== e(   2) =    -9.66597 eV ==== 
     psi = 0.203*[#   3]+0.203*[#   4]+0.203*[#   7]+0.203*[#   8]+0.091*[#   1]
          +0.091*[#   5]
    |psi|^2 = 0.992
==== e(   3) =    -8.34435 eV ==== 
     psi = 0.489*[#   2]+0.489*[#   6]
    |psi|^2 = 0.978
==== e(   4) =    -7.28243 eV ==== 
     psi = 0.249*[#   3]+0.249*[#   4]+0.249*[#   7]+0.249*[#   8]
    |psi|^2 = 0.997
==== e(   5) =     2.97206 eV ==== 
     psi = 0.009*[#   3]+0.009*[#   4]+0.009*[#   7]+0.009*[#   8]
    |psi|^2 = 0.034
==== e(   6) =     3.66995 eV ==== 
     psi = 0.005*[#   2]+0.005*[#   6]
    |psi|^2 = 0.011
==== e(   7) =     3.82060 eV ==== 

    |psi|^2 = 0.003
==== e(   8) =     4.78692 eV ==== 
     psi = 0.015*[#   2]+0.015*[#   6]
    |psi|^2 = 0.031

 k =   0.0000000000  0.3207501495  0.0000000000
==== e(   1) =   -20.27201 eV ==== 
     psi = 0.324*[#   1]+0.324*[#   5]+0.083*[#   3]+0.083*[#   4]+0.083*[#   7]
          +0.083*[#   8]
    |psi|^2 = 0.980
==== e(   2) =   -10.42597 eV ==== 
     psi = 0.196*[#   3]+0.196*[#   4]+0.196*[#   7]+0.196*[#   8]+0.103*[#   1]
          +0.103*[#   5]
    |psi|^2 = 0.991
==== e(   3) =    -7.93243 eV ==== 
     psi = 0.491*[#   2]+0.491*[#   6]
    |psi|^2 = 0.983
==== e(   4) =    -7.56567 eV ==== 
     psi = 0.249*[#   3]+0.249*[#   4]+0.249*[#   7]+0.249*[#   8]
    |psi|^2 = 0.997
==== e(   5) =     3.46064 eV ==== 
     psi = 0.007*[#   3]+0.007*[#   4]+0.007*[#   7]+0.007*[#   8]
    |psi|^2 = 0.029
==== e(   6) =     4.13373 eV ==== 
     psi = 0.034*[#   2]+0.034*[#   6]
    |psi|^2 = 0.067
==== e(   7) =     4.32147 eV ==== 

    |psi|^2 = 0.002
==== e(   8) =     4.71677 eV ==== 
     psi = 0.408*[#   2]+0.408*[#   6]
    |psi|^2 = 0.817

 k =   0.0000000000  0.3528251645  0.0000000000
==== e(   1) =   -19.88489 eV ==== 
     psi = 0.308*[#   1]+0.308*[#   5]+0.091*[#   3]+0.091*[#   4]+0.091*[#   7]
          +0.091*[#   8]
    |psi|^2 = 0.980
==== e(   2) =   -11.18845 eV ==== 
     psi = 0.191*[#   3]+0.191*[#   4]+0.191*[#   7]+0.191*[#   8]+0.114*[#   1]
          +0.114*[#   5]
    |psi|^2 = 0.991
==== e(   3) =    -7.82508 eV ==== 
     psi = 0.249*[#   3]+0.249*[#   4]+0.249*[#   7]+0.249*[#   8]
    |psi|^2 = 0.997
==== e(   4) =    -7.48577 eV ==== 
     psi = 0.494*[#   2]+0.494*[#   6]
    |psi|^2 = 0.987
==== e(   5) =     3.83394 eV ==== 
     psi = 0.447*[#   2]+0.447*[#   6]
    |psi|^2 = 0.893
==== e(   6) =     3.99935 eV ==== 
     psi = 0.005*[#   3]+0.005*[#   4]+0.005*[#   7]+0.005*[#   8]
    |psi|^2 = 0.022
==== e(   7) =     4.76003 eV ==== 
     psi = 0.021*[#   2]+0.021*[#   6]
    |psi|^2 = 0.043
==== e(   8) =     4.87473 eV ==== 

    |psi|^2 = 0.002

 k =   0.0000000000  0.3849001795  0.0000000000
==== e(   1) =   -19.46344 eV ==== 
     psi = 0.294*[#   1]+0.294*[#   5]+0.098*[#   3]+0.098*[#   4]+0.098*[#   7]
          +0.098*[#   8]
    |psi|^2 = 0.981
==== e(   2) =   -11.94608 eV ==== 
     psi = 0.185*[#   3]+0.185*[#   4]+0.185*[#   7]+0.185*[#   8]+0.125*[#   1]
          +0.125*[#   5]
    |psi|^2 = 0.990
==== e(   3) =    -8.05653 eV ==== 
     psi = 0.249*[#   3]+0.249*[#   4]+0.249*[#   7]+0.249*[#   8]
    |psi|^2 = 0.997
==== e(   4) =    -7.00928 eV ==== 
     psi = 0.495*[#   2]+0.495*[#   6]
    |psi|^2 = 0.991
==== e(   5) =     3.02959 eV ==== 
     psi = 0.464*[#   2]+0.464*[#   6]
    |psi|^2 = 0.928
==== e(   6) =     4.58688 eV ==== 
     psi = 0.003*[#   3]+0.003*[#   4]+0.003*[#   7]+0.003*[#   8]+0.001*[#   1]
          +0.001*[#   5]
    |psi|^2 = 0.016
==== e(   7) =     5.34278 eV ==== 
     psi = 0.006*[#   2]+0.006*[#   6]
    |psi|^2 = 0.012
==== e(   8) =     5.47925 eV ==== 
     psi = 0.002*[#   1]+0.002*[#   5]
    |psi|^2 = 0.003

 k =   0.0000000000  0.4169751944  0.0000000000
==== e(   1) =   -19.00877 eV ==== 
     psi = 0.282*[#   1]+0.282*[#   5]+0.104*[#   3]+0.104*[#   4]+0.104*[#   7]
          +0.104*[#   8]
    |psi|^2 = 0.982
==== e(   2) =   -12.69264 eV ==== 
     psi = 0.180*[#   3]+0.180*[#   4]+0.180*[#   7]+0.180*[#   8]+0.135*[#   1]
          +0.135*[#   5]
    |psi|^2 = 0.989
==== e(   3) =    -8.25683 eV ==== 
     psi = 0.249*[#   3]+0.249*[#   4]+0.249*[#   7]+0.249*[#   8]
    |psi|^2 = 0.996
==== e(   4) =    -6.51056 eV ==== 
     psi = 0.497*[#   2]+0.497*[#   6]
    |psi|^2 = 0.993
==== e(   5) =     2.22788 eV ==== 
     psi = 0.467*[#   2]+0.467*[#   6]
    |psi|^2 = 0.935
==== e(   6) =     5.21840 eV ==== 
     psi = 0.006*[#   1]+0.006*[#   5]
    |psi|^2 = 0.016
==== e(   7) =     5.98996 eV ==== 
     psi = 0.003*[#   2]+0.003*[#   6]
    |psi|^2 = 0.007
==== e(   8) =     6.06439 eV ==== 
     psi = 0.200*[#   1]+0.200*[#   5]+0.044*[#   3]+0.044*[#   4]+0.044*[#   7]
          +0.044*[#   8]
    |psi|^2 = 0.574

 k =   0.0000000000  0.4490502094  0.0000000000
==== e(   1) =   -18.52257 eV ==== 
     psi = 0.272*[#   1]+0.272*[#   5]+0.110*[#   3]+0.110*[#   4]+0.110*[#   7]
          +0.110*[#   8]
    |psi|^2 = 0.983
==== e(   2) =   -13.42247 eV ==== 
     psi = 0.176*[#   3]+0.176*[#   4]+0.176*[#   7]+0.176*[#   8]+0.143*[#   1]
          +0.143*[#   5]
    |psi|^2 = 0.989
==== e(   3) =    -8.42357 eV ==== 
     psi = 0.249*[#   3]+0.249*[#   4]+0.249*[#   7]+0.249*[#   8]
    |psi|^2 = 0.996
==== e(   4) =    -6.00210 eV ==== 
     psi = 0.497*[#   2]+0.497*[#   6]
    |psi|^2 = 0.995
==== e(   5) =     1.46069 eV ==== 
     psi = 0.469*[#   2]+0.469*[#   6]
    |psi|^2 = 0.938
==== e(   6) =     5.82923 eV ==== 
     psi = 0.113*[#   1]+0.113*[#   5]+0.010*[#   3]+0.010*[#   4]+0.010*[#   7]
          +0.010*[#   8]
    |psi|^2 = 0.265
==== e(   7) =     6.10791 eV ==== 
     psi = 0.203*[#   1]+0.203*[#   5]+0.054*[#   3]+0.054*[#   4]+0.054*[#   7]
          +0.054*[#   8]
    |psi|^2 = 0.622
==== e(   8) =     6.69005 eV ==== 
     psi = 0.002*[#   2]+0.002*[#   6]
    |psi|^2 = 0.005

 k =   0.0000000000  0.4811252243  0.0000000000
==== e(   1) =   -18.00791 eV ==== 
     psi = 0.264*[#   1]+0.264*[#   5]+0.114*[#   3]+0.114*[#   4]+0.114*[#   7]
          +0.114*[#   8]
    |psi|^2 = 0.984
==== e(   2) =   -14.12950 eV ==== 
     psi = 0.172*[#   3]+0.172*[#   4]+0.172*[#   7]+0.172*[#   8]+0.149*[#   1]
          +0.149*[#   5]
    |psi|^2 = 0.987
==== e(   3) =    -8.55495 eV ==== 
     psi = 0.249*[#   3]+0.249*[#   4]+0.249*[#   7]+0.249*[#   8]
    |psi|^2 = 0.996
==== e(   4) =    -5.50553 eV ==== 
     psi = 0.498*[#   2]+0.498*[#   6]
    |psi|^2 = 0.996
==== e(   5) =     0.75696 eV ==== 
     psi = 0.471*[#   2]+0.471*[#   6]
    |psi|^2 = 0.941
==== e(   6) =     5.92733 eV ==== 
     psi = 0.318*[#   1]+0.318*[#   5]+0.050*[#   3]+0.050*[#   4]+0.050*[#   7]
          +0.050*[#   8]
    |psi|^2 = 0.838
==== e(   7) =     6.69280 eV ==== 
     psi = 0.010*[#   1]+0.010*[#   5]+0.008*[#   3]+0.008*[#   4]+0.008*[#   7]
          +0.008*[#   8]
    |psi|^2 = 0.053
==== e(   8) =     7.44057 eV ==== 
     psi = 0.002*[#   2]+0.002*[#   6]
    |psi|^2 = 0.004

 k =   0.0000000000  0.5132002393  0.0000000000
==== e(   1) =   -17.47214 eV ==== 
     psi = 0.262*[#   1]+0.262*[#   5]+0.116*[#   3]+0.116*[#   4]+0.116*[#   7]
          +0.116*[#   8]
    |psi|^2 = 0.986
==== e(   2) =   -14.80416 eV ==== 
     psi = 0.171*[#   3]+0.171*[#   4]+0.171*[#   7]+0.171*[#   8]+0.151*[#   1]
          +0.151*[#   5]
    |psi|^2 = 0.986
==== e(   3) =    -8.64966 eV ==== 
     psi = 0.249*[#   3]+0.249*[#   4]+0.249*[#   7]+0.249*[#   8]
    |psi|^2 = 0.996
==== e(   4) =    -5.05960 eV ==== 
     psi = 0.498*[#   2]+0.498*[#   6]
    |psi|^2 = 0.997
==== e(   5) =     0.16006 eV ==== 
     psi = 0.472*[#   2]+0.472*[#   6]
    |psi|^2 = 0.943
==== e(   6) =     5.89762 eV ==== 
     psi = 0.335*[#   1]+0.335*[#   5]+0.051*[#   3]+0.051*[#   4]+0.051*[#   7]
          +0.051*[#   8]
    |psi|^2 = 0.872
==== e(   7) =     7.46610 eV ==== 
     psi = 0.004*[#   3]+0.004*[#   4]+0.004*[#   7]+0.004*[#   8]+0.002*[#   1]
          +0.002*[#   5]
    |psi|^2 = 0.018
==== e(   8) =     8.23957 eV ==== 
     psi = 0.002*[#   2]+0.002*[#   6]
    |psi|^2 = 0.004

 k =   0.0000000000  0.5452752542  0.0000000000
==== e(   1) =   -16.94313 eV ==== 
     psi = 0.274*[#   1]+0.274*[#   5]+0.110*[#   3]+0.110*[#   4]+0.110*[#   7]
          +0.110*[#   8]
    |psi|^2 = 0.989
==== e(   2) =   -15.41709 eV ==== 
     psi = 0.177*[#   3]+0.177*[#   4]+0.177*[#   7]+0.177*[#   8]+0.138*[#   1]
          +0.138*[#   5]
    |psi|^2 = 0.983
==== e(   3) =    -8.70683 eV ==== 
     psi = 0.249*[#   3]+0.249*[#   4]+0.249*[#   7]+0.249*[#   8]
    |psi|^2 = 0.996
==== e(   4) =    -4.73058 eV ==== 
     psi = 0.499*[#   2]+0.499*[#   6]
    |psi|^2 = 0.997
==== e(   5) =    -0.26071 eV ==== 
     psi = 0.472*[#   2]+0.472*[#   6]
    |psi|^2 = 0.944
==== e(   6) =     5.87516 eV ==== 
     psi = 0.342*[#   1]+0.342*[#   5]+0.049*[#   3]+0.049*[#   4]+0.049*[#   7]
          +0.049*[#   8]
    |psi|^2 = 0.880
==== e(   7) =     8.29252 eV ==== 
     psi = 0.002*[#   3]+0.002*[#   4]+0.002*[#   7]+0.002*[#   8]+0.001*[#   1]
          +0.001*[#   5]
    |psi|^2 = 0.010
==== e(   8) =     9.08386 eV ==== 
     psi = 0.002*[#   2]+0.002*[#   6]
    |psi|^2 = 0.005

 k =   0.0000000000 -0.5773502692  0.0000000000
==== e(   1) =   -16.62037 eV ==== 
     psi = 0.310*[#   1]+0.310*[#   5]+0.093*[#   3]+0.093*[#   4]+0.093*[#   7]
          +0.093*[#   8]
    |psi|^2 = 0.993
==== e(   2) =   -15.76792 eV ==== 
     psi = 0.194*[#   3]+0.194*[#   4]+0.194*[#   7]+0.194*[#   8]+0.101*[#   1]
          +0.101*[#   5]
    |psi|^2 = 0.978
==== e(   3) =    -8.72594 eV ==== 
     psi = 0.249*[#   3]+0.249*[#   4]+0.249*[#   7]+0.249*[#   8]
    |psi|^2 = 0.996
==== e(   4) =    -4.60535 eV ==== 
     psi = 0.499*[#   2]+0.499*[#   6]
    |psi|^2 = 0.998
==== e(   5) =    -0.41671 eV ==== 
     psi = 0.472*[#   2]+0.472*[#   6]
    |psi|^2 = 0.944
==== e(   6) =     5.86729 eV ==== 
     psi = 0.343*[#   1]+0.343*[#   5]+0.049*[#   3]+0.049*[#   4]+0.049*[#   7]
          +0.049*[#   8]
    |psi|^2 = 0.881
==== e(   7) =     9.09797 eV ==== 
     psi = 0.004*[#   1]+0.004*[#   5]
    |psi|^2 = 0.008
==== e(   8) =     9.23650 eV ==== 
     psi = 0.002*[#   3]+0.002*[#   4]+0.002*[#   7]+0.002*[#   8]
    |psi|^2 = 0.010

 k =   0.0277777778  0.0481125224  0.0000000000
==== e(   1) =   -22.08424 eV ==== 
     psi = 0.481*[#   1]+0.481*[#   5]+0.005*[#   3]+0.005*[#   4]+0.005*[#   7]
          +0.005*[#   8]
    |psi|^2 = 0.983
==== e(   2) =   -10.09258 eV ==== 
     psi = 0.472*[#   2]+0.472*[#   6]
    |psi|^2 = 0.944
==== e(   3) =    -5.37658 eV ==== 
     psi = 0.247*[#   3]+0.247*[#   4]+0.247*[#   7]+0.247*[#   8]+0.005*[#   1]
          +0.005*[#   5]
    |psi|^2 = 0.997
==== e(   4) =    -5.27709 eV ==== 
     psi = 0.249*[#   3]+0.249*[#   4]+0.249*[#   7]+0.249*[#   8]
    |psi|^2 = 0.997
==== e(   5) =     0.95993 eV ==== 
     psi = 0.002*[#   1]+0.002*[#   5]+0.002*[#   3]+0.002*[#   4]+0.002*[#   7]
          +0.002*[#   8]
    |psi|^2 = 0.012
==== e(   6) =     1.63524 eV ==== 
     psi = 0.009*[#   2]+0.009*[#   6]
    |psi|^2 = 0.017
==== e(   7) =     1.76356 eV ==== 

    |psi|^2 = 0.002
==== e(   8) =     2.77295 eV ==== 
     psi = 0.007*[#   2]+0.007*[#   6]
    |psi|^2 = 0.015

 k =   0.0277777778  0.0801875374  0.0000000000
==== e(   1) =   -22.00881 eV ==== 
     psi = 0.468*[#   1]+0.468*[#   5]+0.012*[#   3]+0.012*[#   4]+0.012*[#   7]
          +0.012*[#   8]
    |psi|^2 = 0.983
==== e(   2) =   -10.00113 eV ==== 
     psi = 0.473*[#   2]+0.473*[#   6]
    |psi|^2 = 0.946
==== e(   3) =    -5.66587 eV ==== 
     psi = 0.243*[#   3]+0.243*[#   4]+0.243*[#   7]+0.243*[#   8]+0.012*[#   1]
          +0.012*[#   5]
    |psi|^2 = 0.997
==== e(   4) =    -5.44151 eV ==== 
     psi = 0.249*[#   3]+0.249*[#   4]+0.249*[#   7]+0.249*[#   8]
    |psi|^2 = 0.997
==== e(   5) =     1.06320 eV ==== 
     psi = 0.004*[#   3]+0.004*[#   4]+0.004*[#   7]+0.004*[#   8]+0.002*[#   1]
          +0.002*[#   5]
    |psi|^2 = 0.018
==== e(   6) =     1.74014 eV ==== 
     psi = 0.008*[#   2]+0.008*[#   6]
    |psi|^2 = 0.017
==== e(   7) =     1.86904 eV ==== 

    |psi|^2 = 0.002
==== e(   8) =     2.87753 eV ==== 
     psi = 0.007*[#   2]+0.007*[#   6]
    |psi|^2 = 0.014

 k =   0.0277777778  0.1122625523  0.0000000000
==== e(   1) =   -21.89577 eV ==== 
     psi = 0.451*[#   1]+0.451*[#   5]+0.020*[#   3]+0.020*[#   4]+0.020*[#   7]
          +0.020*[#   8]
    |psi|^2 = 0.983
==== e(   2) =    -9.86428 eV ==== 
     psi = 0.475*[#   2]+0.475*[#   6]
    |psi|^2 = 0.950
==== e(   3) =    -6.07856 eV ==== 
     psi = 0.239*[#   3]+0.239*[#   4]+0.239*[#   7]+0.239*[#   8]+0.021*[#   1]
          +0.021*[#   5]
    |psi|^2 = 0.997
==== e(   4) =    -5.66936 eV ==== 
     psi = 0.249*[#   3]+0.249*[#   4]+0.249*[#   7]+0.249*[#   8]
    |psi|^2 = 0.997
==== e(   5) =     1.21814 eV ==== 
     psi = 0.006*[#   3]+0.006*[#   4]+0.006*[#   7]+0.006*[#   8]
    |psi|^2 = 0.025
==== e(   6) =     1.89744 eV ==== 
     psi = 0.008*[#   2]+0.008*[#   6]
    |psi|^2 = 0.016
==== e(   7) =     2.02727 eV ==== 

    |psi|^2 = 0.003
==== e(   8) =     3.03433 eV ==== 
     psi = 0.007*[#   2]+0.007*[#   6]
    |psi|^2 = 0.013

 k =   0.0277777778  0.1443375673  0.0000000000
==== e(   1) =   -21.74524 eV ==== 
     psi = 0.430*[#   1]+0.430*[#   5]+0.030*[#   3]+0.030*[#   4]+0.030*[#   7]
          +0.030*[#   8]
    |psi|^2 = 0.982
==== e(   2) =    -9.68241 eV ==== 
     psi = 0.477*[#   2]+0.477*[#   6]
    |psi|^2 = 0.954
==== e(   3) =    -6.59454 eV ==== 
     psi = 0.233*[#   3]+0.233*[#   4]+0.233*[#   7]+0.233*[#   8]+0.032*[#   1]
          +0.032*[#   5]
    |psi|^2 = 0.996
==== e(   4) =    -5.94315 eV ==== 
     psi = 0.249*[#   3]+0.249*[#   4]+0.249*[#   7]+0.249*[#   8]+0.001*[#   1]
          +0.001*[#   5]
    |psi|^2 = 0.997
==== e(   5) =     1.42474 eV ==== 
     psi = 0.008*[#   3]+0.008*[#   4]+0.008*[#   7]+0.008*[#   8]
    |psi|^2 = 0.032
==== e(   6) =     2.10708 eV ==== 
     psi = 0.007*[#   2]+0.007*[#   6]
    |psi|^2 = 0.014
==== e(   7) =     2.23826 eV ==== 

    |psi|^2 = 0.004
==== e(   8) =     3.24328 eV ==== 
     psi = 0.006*[#   2]+0.006*[#   6]
    |psi|^2 = 0.012

 k =   0.0277777778  0.1764125823  0.0000000000
==== e(   1) =   -21.55741 eV ==== 
     psi = 0.409*[#   1]+0.409*[#   5]+0.041*[#   3]+0.041*[#   4]+0.041*[#   7]
          +0.041*[#   8]
    |psi|^2 = 0.982
==== e(   2) =    -9.45609 eV ==== 
     psi = 0.479*[#   2]+0.479*[#   6]
    |psi|^2 = 0.959
==== e(   3) =    -7.19260 eV ==== 
     psi = 0.226*[#   3]+0.226*[#   4]+0.226*[#   7]+0.226*[#   8]+0.045*[#   1]
          +0.045*[#   5]
    |psi|^2 = 0.995
==== e(   4) =    -6.24590 eV ==== 
     psi = 0.249*[#   3]+0.249*[#   4]+0.249*[#   7]+0.249*[#   8]+0.001*[#   1]
          +0.001*[#   5]
    |psi|^2 = 0.997
==== e(   5) =     1.68297 eV ==== 
     psi = 0.009*[#   3]+0.009*[#   4]+0.009*[#   7]+0.009*[#   8]
    |psi|^2 = 0.037
==== e(   6) =     2.36894 eV ==== 
     psi = 0.006*[#   2]+0.006*[#   6]
    |psi|^2 = 0.013
==== e(   7) =     2.50201 eV ==== 

    |psi|^2 = 0.004
==== e(   8) =     3.50421 eV ==== 
     psi = 0.006*[#   2]+0.006*[#   6]
    |psi|^2 = 0.011

 k =   0.0277777778  0.2084875972  0.0000000000
==== e(   1) =   -21.33251 eV ==== 
     psi = 0.388*[#   1]+0.388*[#   5]+0.051*[#   3]+0.051*[#   4]+0.051*[#   7]
          +0.051*[#   8]
    |psi|^2 = 0.981
==== e(   2) =    -9.18608 eV ==== 
     psi = 0.482*[#   2]+0.482*[#   6]
    |psi|^2 = 0.964
==== e(   3) =    -7.85278 eV ==== 
     psi = 0.219*[#   3]+0.219*[#   4]+0.219*[#   7]+0.219*[#   8]+0.058*[#   1]
          +0.058*[#   5]
    |psi|^2 = 0.994
==== e(   4) =    -6.56272 eV ==== 
     psi = 0.248*[#   3]+0.248*[#   4]+0.248*[#   7]+0.248*[#   8]+0.002*[#   1]
          +0.002*[#   5]
    |psi|^2 = 0.997
==== e(   5) =     1.99272 eV ==== 
     psi = 0.010*[#   3]+0.010*[#   4]+0.010*[#   7]+0.010*[#   8]
    |psi|^2 = 0.040
==== e(   6) =     2.68281 eV ==== 
     psi = 0.006*[#   2]+0.006*[#   6]
    |psi|^2 = 0.011
==== e(   7) =     2.81851 eV ==== 
     psi = 0.001*[#   3]+0.001*[#   4]+0.001*[#   7]+0.001*[#   8]
    |psi|^2 = 0.004
==== e(   8) =     3.81681 eV ==== 
     psi = 0.005*[#   2]+0.005*[#   6]
    |psi|^2 = 0.010

 k =   0.0277777778  0.2405626122  0.0000000000
==== e(   1) =   -21.07082 eV ==== 
     psi = 0.368*[#   1]+0.368*[#   5]+0.061*[#   3]+0.061*[#   4]+0.061*[#   7]
          +0.061*[#   8]
    |psi|^2 = 0.981
==== e(   2) =    -8.87344 eV ==== 
     psi = 0.485*[#   2]+0.485*[#   6]
    |psi|^2 = 0.970
==== e(   3) =    -8.55753 eV ==== 
     psi = 0.213*[#   3]+0.213*[#   4]+0.213*[#   7]+0.213*[#   8]+0.071*[#   1]
          +0.071*[#   5]
    |psi|^2 = 0.993
==== e(   4) =    -6.88131 eV ==== 
     psi = 0.248*[#   3]+0.248*[#   4]+0.248*[#   7]+0.248*[#   8]+0.002*[#   1]
          +0.002*[#   5]
    |psi|^2 = 0.997
==== e(   5) =     2.35388 eV ==== 
     psi = 0.010*[#   3]+0.010*[#   4]+0.010*[#   7]+0.010*[#   8]
    |psi|^2 = 0.039
==== e(   6) =     3.04827 eV ==== 
     psi = 0.005*[#   2]+0.005*[#   6]
    |psi|^2 = 0.010
==== e(   7) =     3.18775 eV ==== 

    |psi|^2 = 0.004
==== e(   8) =     4.18025 eV ==== 
     psi = 0.004*[#   2]+0.004*[#   6]
    |psi|^2 = 0.009

 k =   0.0277777778  0.2726376271  0.0000000000
==== e(   1) =   -20.77269 eV ==== 
     psi = 0.349*[#   1]+0.349*[#   5]+0.071*[#   3]+0.071*[#   4]+0.071*[#   7]
          +0.071*[#   8]
    |psi|^2 = 0.980
==== e(   2) =    -9.29201 eV ==== 
     psi = 0.206*[#   3]+0.206*[#   4]+0.206*[#   7]+0.206*[#   8]+0.084*[#   1]
          +0.084*[#   5]
    |psi|^2 = 0.993
==== e(   3) =    -8.51957 eV ==== 
     psi = 0.488*[#   2]+0.488*[#   6]
    |psi|^2 = 0.975
==== e(   4) =    -7.19183 eV ==== 
     psi = 0.248*[#   3]+0.248*[#   4]+0.248*[#   7]+0.248*[#   8]+0.002*[#   1]
          +0.002*[#   5]
    |psi|^2 = 0.997
==== e(   5) =     2.76625 eV ==== 
     psi = 0.009*[#   3]+0.009*[#   4]+0.009*[#   7]+0.009*[#   8]
    |psi|^2 = 0.037
==== e(   6) =     3.46410 eV ==== 
     psi = 0.005*[#   2]+0.005*[#   6]
    |psi|^2 = 0.009
==== e(   7) =     3.60970 eV ==== 

    |psi|^2 = 0.003
==== e(   8) =     4.59092 eV ==== 
     psi = 0.006*[#   2]+0.006*[#   6]
    |psi|^2 = 0.012

 k =   0.0277777778  0.3047126421  0.0000000000
==== e(   1) =   -20.43858 eV ==== 
     psi = 0.331*[#   1]+0.331*[#   5]+0.079*[#   3]+0.079*[#   4]+0.079*[#   7]
          +0.079*[#   8]
    |psi|^2 = 0.980
==== e(   2) =   -10.04401 eV ==== 
     psi = 0.200*[#   3]+0.200*[#   4]+0.200*[#   7]+0.200*[#   8]+0.097*[#   1]
          +0.097*[#   5]
    |psi|^2 = 0.992
==== e(   3) =    -8.12644 eV ==== 
     psi = 0.490*[#   2]+0.490*[#   6]
    |psi|^2 = 0.980
==== e(   4) =    -7.48659 eV ==== 
     psi = 0.248*[#   3]+0.248*[#   4]+0.248*[#   7]+0.248*[#   8]+0.002*[#   1]
          +0.002*[#   5]
    |psi|^2 = 0.997
==== e(   5) =     3.22956 eV ==== 
     psi = 0.008*[#   3]+0.008*[#   4]+0.008*[#   7]+0.008*[#   8]
    |psi|^2 = 0.032
==== e(   6) =     3.92399 eV ==== 
     psi = 0.009*[#   2]+0.009*[#   6]
    |psi|^2 = 0.018
==== e(   7) =     4.08431 eV ==== 

    |psi|^2 = 0.003
==== e(   8) =     4.95387 eV ==== 
     psi = 0.187*[#   2]+0.187*[#   6]
    |psi|^2 = 0.374

 k =   0.0277777778  0.3367876570  0.0000000000
==== e(   1) =   -20.06902 eV ==== 
     psi = 0.315*[#   1]+0.315*[#   5]+0.088*[#   3]+0.088*[#   4]+0.088*[#   7]
          +0.088*[#   8]
    |psi|^2 = 0.980
==== e(   2) =   -10.80349 eV ==== 
     psi = 0.194*[#   3]+0.194*[#   4]+0.194*[#   7]+0.194*[#   8]+0.109*[#   1]
          +0.109*[#   5]
    |psi|^2 = 0.991
==== e(   3) =    -7.75960 eV ==== 
     psi = 0.248*[#   3]+0.248*[#   4]+0.248*[#   7]+0.248*[#   8]+0.002*[#   1]
          +0.002*[#   5]
    |psi|^2 = 0.997
==== e(   4) =    -7.69678 eV ==== 
     psi = 0.493*[#   2]+0.493*[#   6]
    |psi|^2 = 0.985
==== e(   5) =     3.74337 eV ==== 
     psi = 0.006*[#   3]+0.006*[#   4]+0.006*[#   7]+0.006*[#   8]
    |psi|^2 = 0.026
==== e(   6) =     4.17410 eV ==== 
     psi = 0.350*[#   2]+0.350*[#   6]
    |psi|^2 = 0.701
==== e(   7) =     4.55301 eV ==== 
     psi = 0.115*[#   2]+0.115*[#   6]
    |psi|^2 = 0.229
==== e(   8) =     4.61146 eV ==== 

    |psi|^2 = 0.002

 k =   0.0277777778  0.3688626720  0.0000000000
==== e(   1) =   -19.66473 eV ==== 
     psi = 0.300*[#   1]+0.300*[#   5]+0.095*[#   3]+0.095*[#   4]+0.095*[#   7]
          +0.095*[#   8]
    |psi|^2 = 0.981
==== e(   2) =   -11.56223 eV ==== 
     psi = 0.188*[#   3]+0.188*[#   4]+0.188*[#   7]+0.188*[#   8]+0.120*[#   1]
          +0.120*[#   5]
    |psi|^2 = 0.991
==== e(   3) =    -8.00625 eV ==== 
     psi = 0.248*[#   3]+0.248*[#   4]+0.248*[#   7]+0.248*[#   8]+0.002*[#   1]
          +0.002*[#   5]
    |psi|^2 = 0.997
==== e(   4) =    -7.23457 eV ==== 
     psi = 0.495*[#   2]+0.495*[#   6]
    |psi|^2 = 0.989
==== e(   5) =     3.42415 eV ==== 
     psi = 0.461*[#   2]+0.461*[#   6]
    |psi|^2 = 0.922
==== e(   6) =     4.30689 eV ==== 
     psi = 0.005*[#   3]+0.005*[#   4]+0.005*[#   7]+0.005*[#   8]
    |psi|^2 = 0.019
==== e(   7) =     5.05902 eV ==== 
     psi = 0.009*[#   2]+0.009*[#   6]
    |psi|^2 = 0.018
==== e(   8) =     5.19076 eV ==== 

    |psi|^2 = 0.002

 k =   0.0277777778  0.4009376869  0.0000000000
==== e(   1) =   -19.22664 eV ==== 
     psi = 0.287*[#   1]+0.287*[#   5]+0.102*[#   3]+0.102*[#   4]+0.102*[#   7]
          +0.102*[#   8]
    |psi|^2 = 0.981
==== e(   2) =   -12.31337 eV ==== 
     psi = 0.183*[#   3]+0.183*[#   4]+0.183*[#   7]+0.183*[#   8]+0.130*[#   1]
          +0.130*[#   5]
    |psi|^2 = 0.990
==== e(   3) =    -8.22300 eV ==== 
     psi = 0.248*[#   3]+0.248*[#   4]+0.248*[#   7]+0.248*[#   8]+0.002*[#   1]
          +0.002*[#   5]
    |psi|^2 = 0.996
==== e(   4) =    -6.74586 eV ==== 
     psi = 0.496*[#   2]+0.496*[#   6]
    |psi|^2 = 0.992
==== e(   5) =     2.61747 eV ==== 
     psi = 0.467*[#   2]+0.467*[#   6]
    |psi|^2 = 0.933
==== e(   6) =     4.91807 eV ==== 
     psi = 0.002*[#   3]+0.002*[#   4]+0.002*[#   7]+0.002*[#   8]+0.002*[#   1]
          +0.002*[#   5]
    |psi|^2 = 0.014
==== e(   7) =     5.67772 eV ==== 
     psi = 0.004*[#   2]+0.004*[#   6]
    |psi|^2 = 0.008
==== e(   8) =     5.81912 eV ==== 
     psi = 0.005*[#   1]+0.005*[#   5]
    |psi|^2 = 0.011

 k =   0.0277777778  0.4330127019  0.0000000000
==== e(   1) =   -18.75610 eV ==== 
     psi = 0.276*[#   1]+0.276*[#   5]+0.107*[#   3]+0.107*[#   4]+0.107*[#   7]
          +0.107*[#   8]
    |psi|^2 = 0.982
==== e(   2) =   -13.05094 eV ==== 
     psi = 0.178*[#   3]+0.178*[#   4]+0.178*[#   7]+0.178*[#   8]+0.139*[#   1]
          +0.139*[#   5]
    |psi|^2 = 0.989
==== e(   3) =    -8.40714 eV ==== 
     psi = 0.248*[#   3]+0.248*[#   4]+0.248*[#   7]+0.248*[#   8]+0.002*[#   1]
          +0.002*[#   5]
    |psi|^2 = 0.996
==== e(   4) =    -6.24030 eV ==== 
     psi = 0.497*[#   2]+0.497*[#   6]
    |psi|^2 = 0.994
==== e(   5) =     1.83198 eV ==== 
     psi = 0.469*[#   2]+0.469*[#   6]
    |psi|^2 = 0.938
==== e(   6) =     5.56612 eV ==== 
     psi = 0.015*[#   1]+0.015*[#   5]
    |psi|^2 = 0.031
==== e(   7) =     6.15306 eV ==== 
     psi = 0.285*[#   1]+0.285*[#   5]+0.067*[#   3]+0.067*[#   4]+0.067*[#   7]
          +0.067*[#   8]
    |psi|^2 = 0.837
==== e(   8) =     6.35169 eV ==== 
     psi = 0.003*[#   2]+0.003*[#   6]
    |psi|^2 = 0.006

 k =   0.0277777778  0.4650877168  0.0000000000
==== e(   1) =   -18.25534 eV ==== 
     psi = 0.267*[#   1]+0.267*[#   5]+0.112*[#   3]+0.112*[#   4]+0.112*[#   7]
          +0.112*[#   8]
    |psi|^2 = 0.983
==== e(   2) =   -13.76918 eV ==== 
     psi = 0.174*[#   3]+0.174*[#   4]+0.174*[#   7]+0.174*[#   8]+0.146*[#   1]
          +0.146*[#   5]
    |psi|^2 = 0.988
==== e(   3) =    -8.55663 eV ==== 
     psi = 0.248*[#   3]+0.248*[#   4]+0.248*[#   7]+0.248*[#   8]+0.002*[#   1]
          +0.002*[#   5]
    |psi|^2 = 0.996
==== e(   4) =    -5.73415 eV ==== 
     psi = 0.498*[#   2]+0.498*[#   6]
    |psi|^2 = 0.996
==== e(   5) =     1.09396 eV ==== 
     psi = 0.470*[#   2]+0.470*[#   6]
    |psi|^2 = 0.941
==== e(   6) =     6.00595 eV ==== 
     psi = 0.270*[#   1]+0.270*[#   5]+0.041*[#   3]+0.041*[#   4]+0.041*[#   7]
          +0.041*[#   8]
    |psi|^2 = 0.703
==== e(   7) =     6.36931 eV ==== 
     psi = 0.050*[#   1]+0.050*[#   5]+0.021*[#   3]+0.021*[#   4]+0.021*[#   7]
          +0.021*[#   8]
    |psi|^2 = 0.185
==== e(   8) =     7.07688 eV ==== 
     psi = 0.002*[#   2]+0.002*[#   6]
    |psi|^2 = 0.004

 k =   0.0277777778  0.4971627318  0.0000000000
==== e(   1) =   -17.72891 eV ==== 
     psi = 0.262*[#   1]+0.262*[#   5]+0.115*[#   3]+0.115*[#   4]+0.115*[#   7]
          +0.115*[#   8]
    |psi|^2 = 0.985
==== e(   2) =   -14.46087 eV ==== 
     psi = 0.171*[#   3]+0.171*[#   4]+0.171*[#   7]+0.171*[#   8]+0.151*[#   1]
          +0.151*[#   5]
    |psi|^2 = 0.987
==== e(   3) =    -8.66996 eV ==== 
     psi = 0.248*[#   3]+0.248*[#   4]+0.248*[#   7]+0.248*[#   8]+0.002*[#   1]
          +0.002*[#   5]
    |psi|^2 = 0.996
==== e(   4) =    -5.25629 eV ==== 
     psi = 0.498*[#   2]+0.498*[#   6]
    |psi|^2 = 0.996
==== e(   5) =     0.43790 eV ==== 
     psi = 0.472*[#   2]+0.472*[#   6]
    |psi|^2 = 0.943
==== e(   6) =     5.99741 eV ==== 
     psi = 0.326*[#   1]+0.326*[#   5]+0.052*[#   3]+0.052*[#   4]+0.052*[#   7]
          +0.052*[#   8]
    |psi|^2 = 0.860
==== e(   7) =     7.09083 eV ==== 
     psi = 0.005*[#   3]+0.005*[#   4]+0.005*[#   7]+0.005*[#   8]+0.004*[#   1]
          +0.004*[#   5]
    |psi|^2 = 0.029
==== e(   8) =     7.85130 eV ==== 
     psi = 0.002*[#   2]+0.002*[#   6]
    |psi|^2 = 0.004

 k =   0.0277777778  0.5292377468  0.0000000000
==== e(   1) =   -17.19015 eV ==== 
     psi = 0.264*[#   1]+0.264*[#   5]+0.115*[#   3]+0.115*[#   4]+0.115*[#   7]
          +0.115*[#   8]
    |psi|^2 = 0.987
==== e(   2) =   -15.11080 eV ==== 
     psi = 0.172*[#   3]+0.172*[#   4]+0.172*[#   7]+0.172*[#   8]+0.147*[#   1]
          +0.147*[#   5]
    |psi|^2 = 0.984
==== e(   3) =    -8.74607 eV ==== 
     psi = 0.248*[#   3]+0.248*[#   4]+0.248*[#   7]+0.248*[#   8]+0.002*[#   1]
          +0.002*[#   5]
    |psi|^2 = 0.996
==== e(   4) =    -4.85813 eV ==== 
     psi = 0.499*[#   2]+0.499*[#   6]
    |psi|^2 = 0.997
==== e(   5) =    -0.08102 eV ==== 
     psi = 0.472*[#   2]+0.472*[#   6]
    |psi|^2 = 0.944
==== e(   6) =     5.96992 eV ==== 
     psi = 0.336*[#   1]+0.336*[#   5]+0.051*[#   3]+0.051*[#   4]+0.051*[#   7]
          +0.051*[#   8]
    |psi|^2 = 0.875
==== e(   7) =     7.89212 eV ==== 
     psi = 0.003*[#   3]+0.003*[#   4]+0.003*[#   7]+0.003*[#   8]+0.001*[#   1]
          +0.001*[#   5]
    |psi|^2 = 0.013
==== e(   8) =     8.67244 eV ==== 
     psi = 0.002*[#   2]+0.002*[#   6]
    |psi|^2 = 0.004

 k =   0.0277777778  0.5613127617  0.0000000000
==== e(   1) =   -16.70945 eV ==== 
     psi = 0.293*[#   1]+0.293*[#   5]+0.102*[#   3]+0.102*[#   4]+0.102*[#   7]
          +0.102*[#   8]
    |psi|^2 = 0.991
==== e(   2) =   -15.64739 eV ==== 
     psi = 0.186*[#   3]+0.186*[#   4]+0.186*[#   7]+0.186*[#   8]+0.119*[#   1]
          +0.119*[#   5]
    |psi|^2 = 0.980
==== e(   3) =    -8.78429 eV ==== 
     psi = 0.248*[#   3]+0.248*[#   4]+0.248*[#   7]+0.248*[#   8]+0.002*[#   1]
          +0.002*[#   5]
    |psi|^2 = 0.996
==== e(   4) =    -4.62013 eV ==== 
     psi = 0.499*[#   2]+0.499*[#   6]
    |psi|^2 = 0.998
==== e(   5) =    -0.37999 eV ==== 
     psi = 0.472*[#   2]+0.472*[#   6]
    |psi|^2 = 0.945
==== e(   6) =     5.95452 eV ==== 
     psi = 0.340*[#   1]+0.340*[#   5]+0.050*[#   3]+0.050*[#   4]+0.050*[#   7]
          +0.050*[#   8]
    |psi|^2 = 0.879
==== e(   7) =     8.73863 eV ==== 
     psi = 0.002*[#   1]+0.002*[#   5]+0.001*[#   3]+0.001*[#   4]+0.001*[#   7]
          +0.001*[#   8]
    |psi|^2 = 0.009
==== e(   8) =     9.53369 eV ==== 
     psi = 0.003*[#   2]+0.003*[#   6]
    |psi|^2 = 0.006

 k =   0.0555555556  0.0962250449  0.0000000000
==== e(   1) =   -21.91460 eV ==== 
     psi = 0.453*[#   1]+0.453*[#   5]+0.019*[#   3]+0.019*[#   4]+0.019*[#   7]
          +0.019*[#   8]
    |psi|^2 = 0.983
==== e(   2) =    -9.88706 eV ==== 
     psi = 0.475*[#   2]+0.475*[#   6]
    |psi|^2 = 0.949
==== e(   3) =    -5.99633 eV ==== 
     psi = 0.240*[#   3]+0.240*[#   4]+0.240*[#   7]+0.240*[#   8]+0.019*[#   1]
          +0.019*[#   5]
    |psi|^2 = 0.997
==== e(   4) =    -5.64926 eV ==== 
     psi = 0.248*[#   3]+0.248*[#   4]+0.248*[#   7]+0.248*[#   8]+0.002*[#   1]
          +0.002*[#   5]
    |psi|^2 = 0.996
==== e(   5) =     1.19233 eV ==== 
     psi = 0.006*[#   3]+0.006*[#   4]+0.006*[#   7]+0.006*[#   8]
    |psi|^2 = 0.024
==== e(   6) =     1.87123 eV ==== 
     psi = 0.008*[#   2]+0.008*[#   6]
    |psi|^2 = 0.016
==== e(   7) =     2.00090 eV ==== 

    |psi|^2 = 0.003
==== e(   8) =     3.00821 eV ==== 
     psi = 0.007*[#   2]+0.007*[#   6]
    |psi|^2 = 0.014

 k =   0.0555555556  0.1283000598  0.0000000000
==== e(   1) =   -21.78286 eV ==== 
     psi = 0.435*[#   1]+0.435*[#   5]+0.028*[#   3]+0.028*[#   4]+0.028*[#   7]
          +0.028*[#   8]
    |psi|^2 = 0.982
==== e(   2) =    -9.72780 eV ==== 
     psi = 0.476*[#   2]+0.476*[#   6]
    |psi|^2 = 0.953
==== e(   3) =    -6.43366 eV ==== 
     psi = 0.235*[#   3]+0.235*[#   4]+0.235*[#   7]+0.235*[#   8]+0.028*[#   1]
          +0.028*[#   5]
    |psi|^2 = 0.997
==== e(   4) =    -5.91754 eV ==== 
     psi = 0.247*[#   3]+0.247*[#   4]+0.247*[#   7]+0.247*[#   8]+0.003*[#   1]
          +0.003*[#   5]
    |psi|^2 = 0.996
==== e(   5) =     1.37314 eV ==== 
     psi = 0.008*[#   3]+0.008*[#   4]+0.008*[#   7]+0.008*[#   8]
    |psi|^2 = 0.031
==== e(   6) =     2.05469 eV ==== 
     psi = 0.007*[#   2]+0.007*[#   6]
    |psi|^2 = 0.015
==== e(   7) =     2.18552 eV ==== 

    |psi|^2 = 0.004
==== e(   8) =     3.19107 eV ==== 
     psi = 0.006*[#   2]+0.006*[#   6]
    |psi|^2 = 0.013

 k =   0.0555555556  0.1603750748  0.0000000000
==== e(   1) =   -21.61373 eV ==== 
     psi = 0.415*[#   1]+0.415*[#   5]+0.038*[#   3]+0.038*[#   4]+0.038*[#   7]
          +0.038*[#   8]
    |psi|^2 = 0.982
==== e(   2) =    -9.52383 eV ==== 
     psi = 0.479*[#   2]+0.479*[#   6]
    |psi|^2 = 0.957
==== e(   3) =    -6.96382 eV ==== 
     psi = 0.230*[#   3]+0.230*[#   4]+0.230*[#   7]+0.230*[#   8]+0.039*[#   1]
          +0.039*[#   5]
    |psi|^2 = 0.997
==== e(   4) =    -6.22368 eV ==== 
     psi = 0.247*[#   3]+0.247*[#   4]+0.247*[#   7]+0.247*[#   8]+0.004*[#   1]
          +0.004*[#   5]
    |psi|^2 = 0.995
==== e(   5) =     1.60561 eV ==== 
     psi = 0.009*[#   3]+0.009*[#   4]+0.009*[#   7]+0.009*[#   8]
    |psi|^2 = 0.036
==== e(   6) =     2.29043 eV ==== 
     psi = 0.007*[#   2]+0.007*[#   6]
    |psi|^2 = 0.013
==== e(   7) =     2.42290 eV ==== 

    |psi|^2 = 0.004
==== e(   8) =     3.42601 eV ==== 
     psi = 0.006*[#   2]+0.006*[#   6]
    |psi|^2 = 0.011

 k =   0.0555555556  0.1924500897  0.0000000000
==== e(   1) =   -21.40743 eV ==== 
     psi = 0.395*[#   1]+0.395*[#   5]+0.048*[#   3]+0.048*[#   4]+0.048*[#   7]
          +0.048*[#   8]
    |psi|^2 = 0.981
==== e(   2) =    -9.27580 eV ==== 
     psi = 0.481*[#   2]+0.481*[#   6]
    |psi|^2 = 0.962
==== e(   3) =    -7.56959 eV ==== 
     psi = 0.223*[#   3]+0.223*[#   4]+0.223*[#   7]+0.223*[#   8]+0.052*[#   1]
          +0.052*[#   5]
    |psi|^2 = 0.996
==== e(   4) =    -6.54898 eV ==== 
     psi = 0.246*[#   3]+0.246*[#   4]+0.246*[#   7]+0.246*[#   8]+0.005*[#   1]
          +0.005*[#   5]
    |psi|^2 = 0.995
==== e(   5) =     1.88966 eV ==== 
     psi = 0.010*[#   3]+0.010*[#   4]+0.010*[#   7]+0.010*[#   8]
    |psi|^2 = 0.040
==== e(   6) =     2.57831 eV ==== 
     psi = 0.006*[#   2]+0.006*[#   6]
    |psi|^2 = 0.012
==== e(   7) =     2.71305 eV ==== 
     psi = 0.001*[#   3]+0.001*[#   4]+0.001*[#   7]+0.001*[#   8]
    |psi|^2 = 0.004
==== e(   8) =     3.71282 eV ==== 
     psi = 0.005*[#   2]+0.005*[#   6]
    |psi|^2 = 0.010

 k =   0.0555555556  0.2245251047  0.0000000000
==== e(   1) =   -21.16422 eV ==== 
     psi = 0.375*[#   1]+0.375*[#   5]+0.058*[#   3]+0.058*[#   4]+0.058*[#   7]
          +0.058*[#   8]
    |psi|^2 = 0.981
==== e(   2) =    -8.98462 eV ==== 
     psi = 0.484*[#   2]+0.484*[#   6]
    |psi|^2 = 0.968
==== e(   3) =    -8.23309 eV ==== 
     psi = 0.216*[#   3]+0.216*[#   4]+0.216*[#   7]+0.216*[#   8]+0.065*[#   1]
          +0.065*[#   5]
    |psi|^2 = 0.995
==== e(   4) =    -6.87906 eV ==== 
     psi = 0.246*[#   3]+0.246*[#   4]+0.246*[#   7]+0.246*[#   8]+0.006*[#   1]
          +0.006*[#   5]
    |psi|^2 = 0.995
==== e(   5) =     2.22519 eV ==== 
     psi = 0.010*[#   3]+0.010*[#   4]+0.010*[#   7]+0.010*[#   8]
    |psi|^2 = 0.040
==== e(   6) =     2.91804 eV ==== 
     psi = 0.005*[#   2]+0.005*[#   6]
    |psi|^2 = 0.010
==== e(   7) =     3.05594 eV ==== 
     psi = 0.001*[#   3]+0.001*[#   4]+0.001*[#   7]+0.001*[#   8]
    |psi|^2 = 0.004
==== e(   8) =     4.05103 eV ==== 
     psi = 0.004*[#   2]+0.004*[#   6]
    |psi|^2 = 0.009

 k =   0.0555555556  0.2566001196  0.0000000000
==== e(   1) =   -20.88442 eV ==== 
     psi = 0.355*[#   1]+0.355*[#   5]+0.067*[#   3]+0.067*[#   4]+0.067*[#   7]
          +0.067*[#   8]
    |psi|^2 = 0.980
==== e(   2) =    -8.93784 eV ==== 
     psi = 0.210*[#   3]+0.210*[#   4]+0.210*[#   7]+0.210*[#   8]+0.078*[#   1]
          +0.078*[#   5]
    |psi|^2 = 0.994
==== e(   3) =    -8.65149 eV ==== 
     psi = 0.487*[#   2]+0.487*[#   6]
    |psi|^2 = 0.973
==== e(   4) =    -7.20304 eV ==== 
     psi = 0.246*[#   3]+0.246*[#   4]+0.246*[#   7]+0.246*[#   8]+0.007*[#   1]
          +0.007*[#   5]
    |psi|^2 = 0.996
==== e(   5) =     2.61205 eV ==== 
     psi = 0.010*[#   3]+0.010*[#   4]+0.010*[#   7]+0.010*[#   8]
    |psi|^2 = 0.039
==== e(   6) =     3.30897 eV ==== 
     psi = 0.005*[#   2]+0.005*[#   6]
    |psi|^2 = 0.009
==== e(   7) =     3.45156 eV ==== 

    |psi|^2 = 0.004
==== e(   8) =     4.43914 eV ==== 
     psi = 0.004*[#   2]+0.004*[#   6]
    |psi|^2 = 0.009

 k =   0.0555555556  0.2886751346  0.0000000000
==== e(   1) =   -20.56843 eV ==== 
     psi = 0.337*[#   1]+0.337*[#   5]+0.076*[#   3]+0.076*[#   4]+0.076*[#   7]
          +0.076*[#   8]
    |psi|^2 = 0.980
==== e(   2) =    -9.66961 eV ==== 
     psi = 0.203*[#   3]+0.203*[#   4]+0.203*[#   7]+0.203*[#   8]+0.090*[#   1]
          +0.090*[#   5]
    |psi|^2 = 0.993
==== e(   3) =    -8.27807 eV ==== 
     psi = 0.489*[#   2]+0.489*[#   6]
    |psi|^2 = 0.978
==== e(   4) =    -7.51266 eV ==== 
     psi = 0.245*[#   3]+0.245*[#   4]+0.245*[#   7]+0.245*[#   8]+0.007*[#   1]
          +0.007*[#   5]
    |psi|^2 = 0.996
==== e(   5) =     3.05000 eV ==== 
     psi = 0.009*[#   3]+0.009*[#   4]+0.009*[#   7]+0.009*[#   8]
    |psi|^2 = 0.035
==== e(   6) =     3.74865 eV ==== 
     psi = 0.005*[#   2]+0.005*[#   6]
    |psi|^2 = 0.010
==== e(   7) =     3.89989 eV ==== 

    |psi|^2 = 0.003
==== e(   8) =     4.86389 eV ==== 
     psi = 0.019*[#   2]+0.019*[#   6]
    |psi|^2 = 0.038

 k =   0.0555555556  0.3207501495  0.0000000000
==== e(   1) =   -20.21676 eV ==== 
     psi = 0.321*[#   1]+0.321*[#   5]+0.085*[#   3]+0.085*[#   4]+0.085*[#   7]
          +0.085*[#   8]
    |psi|^2 = 0.980
==== e(   2) =   -10.41657 eV ==== 
     psi = 0.197*[#   3]+0.197*[#   4]+0.197*[#   7]+0.197*[#   8]+0.102*[#   1]
          +0.102*[#   5]
    |psi|^2 = 0.992
==== e(   3) =    -7.86665 eV ==== 
     psi = 0.492*[#   2]+0.492*[#   6]
    |psi|^2 = 0.983
==== e(   4) =    -7.80161 eV ==== 
     psi = 0.245*[#   3]+0.245*[#   4]+0.245*[#   7]+0.245*[#   8]+0.007*[#   1]
          +0.007*[#   5]
    |psi|^2 = 0.996
==== e(   5) =     3.53874 eV ==== 
     psi = 0.007*[#   3]+0.007*[#   4]+0.007*[#   7]+0.007*[#   8]
    |psi|^2 = 0.029
==== e(   6) =     4.20650 eV ==== 
     psi = 0.047*[#   2]+0.047*[#   6]
    |psi|^2 = 0.095
==== e(   7) =     4.40085 eV ==== 

    |psi|^2 = 0.002
==== e(   8) =     4.66129 eV ==== 
     psi = 0.411*[#   2]+0.411*[#   6]
    |psi|^2 = 0.821

 k =   0.0555555556  0.3528251645  0.0000000000
==== e(   1) =   -19.83002 eV ==== 
     psi = 0.306*[#   1]+0.306*[#   5]+0.092*[#   3]+0.092*[#   4]+0.092*[#   7]
          +0.092*[#   8]
    |psi|^2 = 0.980
==== e(   2) =   -11.16896 eV ==== 
     psi = 0.191*[#   3]+0.191*[#   4]+0.191*[#   7]+0.191*[#   8]+0.114*[#   1]
          +0.114*[#   5]
    |psi|^2 = 0.991
==== e(   3) =    -8.06508 eV ==== 
     psi = 0.245*[#   3]+0.245*[#   4]+0.245*[#   7]+0.245*[#   8]+0.007*[#   1]
          +0.007*[#   5]
    |psi|^2 = 0.996
==== e(   4) =    -7.42048 eV ==== 
     psi = 0.494*[#   2]+0.494*[#   6]
    |psi|^2 = 0.988
==== e(   5) =     3.78790 eV ==== 
     psi = 0.456*[#   2]+0.456*[#   6]
    |psi|^2 = 0.912
==== e(   6) =     4.07776 eV ==== 
     psi = 0.006*[#   3]+0.006*[#   4]+0.006*[#   7]+0.006*[#   8]
    |psi|^2 = 0.023
==== e(   7) =     4.82759 eV ==== 
     psi = 0.015*[#   2]+0.015*[#   6]
    |psi|^2 = 0.030
==== e(   8) =     4.95431 eV ==== 

    |psi|^2 = 0.002

 k =   0.0555555556  0.3849001795  0.0000000000
==== e(   1) =   -19.40905 eV ==== 
     psi = 0.292*[#   1]+0.292*[#   5]+0.099*[#   3]+0.099*[#   4]+0.099*[#   7]
          +0.099*[#   8]
    |psi|^2 = 0.981
==== e(   2) =   -11.91877 eV ==== 
     psi = 0.186*[#   3]+0.186*[#   4]+0.186*[#   7]+0.186*[#   8]+0.124*[#   1]
          +0.124*[#   5]
    |psi|^2 = 0.991
==== e(   3) =    -8.29934 eV ==== 
     psi = 0.245*[#   3]+0.245*[#   4]+0.245*[#   7]+0.245*[#   8]+0.007*[#   1]
          +0.007*[#   5]
    |psi|^2 = 0.996
==== e(   4) =    -6.94440 eV ==== 
     psi = 0.495*[#   2]+0.495*[#   6]
    |psi|^2 = 0.991
==== e(   5) =     2.98945 eV ==== 
     psi = 0.467*[#   2]+0.467*[#   6]
    |psi|^2 = 0.934
==== e(   6) =     4.66610 eV ==== 
     psi = 0.004*[#   3]+0.004*[#   4]+0.004*[#   7]+0.004*[#   8]
    |psi|^2 = 0.016
==== e(   7) =     5.41542 eV ==== 
     psi = 0.005*[#   2]+0.005*[#   6]
    |psi|^2 = 0.010
==== e(   8) =     5.55973 eV ==== 

    |psi|^2 = 0.002

 k =   0.0555555556  0.4169751944  0.0000000000
==== e(   1) =   -18.95496 eV ==== 
     psi = 0.280*[#   1]+0.280*[#   5]+0.105*[#   3]+0.105*[#   4]+0.105*[#   7]
          +0.105*[#   8]
    |psi|^2 = 0.982
==== e(   2) =   -12.65923 eV ==== 
     psi = 0.180*[#   3]+0.180*[#   4]+0.180*[#   7]+0.180*[#   8]+0.134*[#   1]
          +0.134*[#   5]
    |psi|^2 = 0.990
==== e(   3) =    -8.50156 eV ==== 
     psi = 0.245*[#   3]+0.245*[#   4]+0.245*[#   7]+0.245*[#   8]+0.007*[#   1]
          +0.007*[#   5]
    |psi|^2 = 0.996
==== e(   4) =    -6.44592 eV ==== 
     psi = 0.497*[#   2]+0.497*[#   6]
    |psi|^2 = 0.993
==== e(   5) =     2.19708 eV ==== 
     psi = 0.470*[#   2]+0.470*[#   6]
    |psi|^2 = 0.939
==== e(   6) =     5.30102 eV ==== 
     psi = 0.003*[#   1]+0.003*[#   5]+0.002*[#   3]+0.002*[#   4]+0.002*[#   7]
          +0.002*[#   8]
    |psi|^2 = 0.013
==== e(   7) =     6.06271 eV ==== 
     psi = 0.003*[#   2]+0.003*[#   6]
    |psi|^2 = 0.006
==== e(   8) =     6.20961 eV ==== 
     psi = 0.015*[#   1]+0.015*[#   5]+0.002*[#   3]+0.002*[#   4]+0.002*[#   7]
          +0.002*[#   8]
    |psi|^2 = 0.038

 k =   0.0555555556  0.4490502094  0.0000000000
==== e(   1) =   -18.46948 eV ==== 
     psi = 0.270*[#   1]+0.270*[#   5]+0.111*[#   3]+0.111*[#   4]+0.111*[#   7]
          +0.111*[#   8]
    |psi|^2 = 0.983
==== e(   2) =   -13.38426 eV ==== 
     psi = 0.176*[#   3]+0.176*[#   4]+0.176*[#   7]+0.176*[#   8]+0.142*[#   1]
          +0.142*[#   5]
    |psi|^2 = 0.989
==== e(   3) =    -8.66959 eV ==== 
     psi = 0.245*[#   3]+0.245*[#   4]+0.245*[#   7]+0.245*[#   8]+0.007*[#   1]
          +0.007*[#   5]
    |psi|^2 = 0.996
==== e(   4) =    -5.93734 eV ==== 
     psi = 0.498*[#   2]+0.498*[#   6]
    |psi|^2 = 0.995
==== e(   5) =     1.43779 eV ==== 
     psi = 0.471*[#   2]+0.471*[#   6]
    |psi|^2 = 0.942
==== e(   6) =     5.96265 eV ==== 
     psi = 0.031*[#   1]+0.031*[#   5]+0.001*[#   3]+0.001*[#   4]+0.001*[#   7]
          +0.001*[#   8]
    |psi|^2 = 0.066
==== e(   7) =     6.38435 eV ==== 
     psi = 0.273*[#   1]+0.273*[#   5]+0.066*[#   3]+0.066*[#   4]+0.066*[#   7]
          +0.066*[#   8]
    |psi|^2 = 0.811
==== e(   8) =     6.76176 eV ==== 
     psi = 0.002*[#   2]+0.002*[#   6]
    |psi|^2 = 0.005

 k =   0.0555555556  0.4811252243  0.0000000000
==== e(   1) =   -17.95572 eV ==== 
     psi = 0.263*[#   1]+0.263*[#   5]+0.115*[#   3]+0.115*[#   4]+0.115*[#   7]
          +0.115*[#   8]
    |psi|^2 = 0.984
==== e(   2) =   -14.08746 eV ==== 
     psi = 0.173*[#   3]+0.173*[#   4]+0.173*[#   7]+0.173*[#   8]+0.149*[#   1]
          +0.149*[#   5]
    |psi|^2 = 0.988
==== e(   3) =    -8.80180 eV ==== 
     psi = 0.245*[#   3]+0.245*[#   4]+0.245*[#   7]+0.245*[#   8]+0.007*[#   1]
          +0.007*[#   5]
    |psi|^2 = 0.996
==== e(   4) =    -5.44007 eV ==== 
     psi = 0.498*[#   2]+0.498*[#   6]
    |psi|^2 = 0.996
==== e(   5) =     0.73968 eV ==== 
     psi = 0.472*[#   2]+0.472*[#   6]
    |psi|^2 = 0.944
==== e(   6) =     6.25359 eV ==== 
     psi = 0.299*[#   1]+0.299*[#   5]+0.050*[#   3]+0.050*[#   4]+0.050*[#   7]
          +0.050*[#   8]
    |psi|^2 = 0.800
==== e(   7) =     6.77732 eV ==== 
     psi = 0.019*[#   1]+0.019*[#   5]+0.011*[#   3]+0.011*[#   4]+0.011*[#   7]
          +0.011*[#   8]
    |psi|^2 = 0.084
==== e(   8) =     7.51026 eV ==== 
     psi = 0.002*[#   2]+0.002*[#   6]
    |psi|^2 = 0.004

 k =   0.0555555556  0.5132002393  0.0000000000
==== e(   1) =   -17.42111 eV ==== 
     psi = 0.260*[#   1]+0.260*[#   5]+0.116*[#   3]+0.116*[#   4]+0.116*[#   7]
          +0.116*[#   8]
    |psi|^2 = 0.986
==== e(   2) =   -14.75901 eV ==== 
     psi = 0.171*[#   3]+0.171*[#   4]+0.171*[#   7]+0.171*[#   8]+0.150*[#   1]
          +0.150*[#   5]
    |psi|^2 = 0.986
==== e(   3) =    -8.89701 eV ==== 
     psi = 0.245*[#   3]+0.245*[#   4]+0.245*[#   7]+0.245*[#   8]+0.008*[#   1]
          +0.008*[#   5]
    |psi|^2 = 0.996
==== e(   4) =    -4.99264 eV ==== 
     psi = 0.498*[#   2]+0.498*[#   6]
    |psi|^2 = 0.997
==== e(   5) =     0.14579 eV ==== 
     psi = 0.473*[#   2]+0.473*[#   6]
    |psi|^2 = 0.946
==== e(   6) =     6.23222 eV ==== 
     psi = 0.325*[#   1]+0.325*[#   5]+0.054*[#   3]+0.054*[#   4]+0.054*[#   7]
          +0.054*[#   8]
    |psi|^2 = 0.864
==== e(   7) =     7.54156 eV ==== 
     psi = 0.004*[#   3]+0.004*[#   4]+0.004*[#   7]+0.004*[#   8]+0.002*[#   1]
          +0.002*[#   5]
    |psi|^2 = 0.020
==== e(   8) =     8.30573 eV ==== 
     psi = 0.002*[#   2]+0.002*[#   6]
    |psi|^2 = 0.004

 k =   0.0555555556  0.5452752542  0.0000000000
==== e(   1) =   -16.89373 eV ==== 
     psi = 0.272*[#   1]+0.272*[#   5]+0.111*[#   3]+0.111*[#   4]+0.111*[#   7]
          +0.111*[#   8]
    |psi|^2 = 0.989
==== e(   2) =   -15.36918 eV ==== 
     psi = 0.177*[#   3]+0.177*[#   4]+0.177*[#   7]+0.177*[#   8]+0.138*[#   1]
          +0.138*[#   5]
    |psi|^2 = 0.983
==== e(   3) =    -8.95445 eV ==== 
     psi = 0.245*[#   3]+0.245*[#   4]+0.245*[#   7]+0.245*[#   8]+0.008*[#   1]
          +0.008*[#   5]
    |psi|^2 = 0.995
==== e(   4) =    -4.66163 eV ==== 
     psi = 0.499*[#   2]+0.499*[#   6]
    |psi|^2 = 0.997
==== e(   5) =    -0.27427 eV ==== 
     psi = 0.473*[#   2]+0.473*[#   6]
    |psi|^2 = 0.947
==== e(   6) =     6.21071 eV ==== 
     psi = 0.332*[#   1]+0.332*[#   5]+0.052*[#   3]+0.052*[#   4]+0.052*[#   7]
          +0.052*[#   8]
    |psi|^2 = 0.873
==== e(   7) =     8.36541 eV ==== 
     psi = 0.002*[#   3]+0.002*[#   4]+0.002*[#   7]+0.002*[#   8]+0.001*[#   1]
          +0.001*[#   5]
    |psi|^2 = 0.010
==== e(   8) =     9.14323 eV ==== 
     psi = 0.002*[#   2]+0.002*[#   6]
    |psi|^2 = 0.005

 k =   0.0555555556  0.5773502692  0.0000000000
==== e(   1) =   -16.57270 eV ==== 
     psi = 0.307*[#   1]+0.307*[#   5]+0.095*[#   3]+0.095*[#   4]+0.095*[#   7]
          +0.095*[#   8]
    |psi|^2 = 0.993
==== e(   2) =   -15.71791 eV ==== 
     psi = 0.194*[#   3]+0.194*[#   4]+0.194*[#   7]+0.194*[#   8]+0.102*[#   1]
          +0.102*[#   5]
    |psi|^2 = 0.979
==== e(   3) =    -8.97365 eV ==== 
     psi = 0.245*[#   3]+0.245*[#   4]+0.245*[#   7]+0.245*[#   8]+0.008*[#   1]
          +0.008*[#   5]
    |psi|^2 = 0.995
==== e(   4) =    -4.53535 eV ==== 
     psi = 0.499*[#   2]+0.499*[#   6]
    |psi|^2 = 0.998
==== e(   5) =    -0.43043 eV ==== 
     psi = 0.473*[#   2]+0.473*[#   6]
    |psi|^2 = 0.947
==== e(   6) =     6.20299 eV ==== 
     psi = 0.334*[#   1]+0.334*[#   5]+0.052*[#   3]+0.052*[#   4]+0.052*[#   7]
          +0.052*[#   8]
    |psi|^2 = 0.875
==== e(   7) =     9.16626 eV ==== 
     psi = 0.004*[#   1]+0.004*[#   5]
    |psi|^2 = 0.010
==== e(   8) =     9.30875 eV ==== 
     psi = 0.002*[#   3]+0.002*[#   4]+0.002*[#   7]+0.002*[#   8]
    |psi|^2 = 0.010

 k =   0.0833333333  0.1443375673  0.0000000000
==== e(   1) =   -21.63251 eV ==== 
     psi = 0.417*[#   1]+0.417*[#   5]+0.037*[#   3]+0.037*[#   4]+0.037*[#   7]
          +0.037*[#   8]
    |psi|^2 = 0.982
==== e(   2) =    -9.54643 eV ==== 
     psi = 0.478*[#   2]+0.478*[#   6]
    |psi|^2 = 0.957
==== e(   3) =    -6.87303 eV ==== 
     psi = 0.231*[#   3]+0.231*[#   4]+0.231*[#   7]+0.231*[#   8]+0.037*[#   1]
          +0.037*[#   5]
    |psi|^2 = 0.998
==== e(   4) =    -6.23039 eV ==== 
     psi = 0.246*[#   3]+0.246*[#   4]+0.246*[#   7]+0.246*[#   8]+0.006*[#   1]
          +0.006*[#   5]
    |psi|^2 = 0.995
==== e(   5) =     1.57983 eV ==== 
     psi = 0.009*[#   3]+0.009*[#   4]+0.009*[#   7]+0.009*[#   8]
    |psi|^2 = 0.036
==== e(   6) =     2.26426 eV ==== 
     psi = 0.007*[#   2]+0.007*[#   6]
    |psi|^2 = 0.014
==== e(   7) =     2.39654 eV ==== 

    |psi|^2 = 0.004
==== e(   8) =     3.39994 eV ==== 
     psi = 0.006*[#   2]+0.006*[#   6]
    |psi|^2 = 0.011

 k =   0.0833333333  0.1764125823  0.0000000000
==== e(   1) =   -21.44492 eV ==== 
     psi = 0.398*[#   1]+0.398*[#   5]+0.046*[#   3]+0.046*[#   4]+0.046*[#   7]
          +0.046*[#   8]
    |psi|^2 = 0.981
==== e(   2) =    -9.32073 eV ==== 
     psi = 0.481*[#   2]+0.481*[#   6]
    |psi|^2 = 0.961
==== e(   3) =    -7.39239 eV ==== 
     psi = 0.226*[#   3]+0.226*[#   4]+0.226*[#   7]+0.226*[#   8]+0.047*[#   1]
          +0.047*[#   5]
    |psi|^2 = 0.997
==== e(   4) =    -6.57772 eV ==== 
     psi = 0.244*[#   3]+0.244*[#   4]+0.244*[#   7]+0.244*[#   8]+0.009*[#   1]
          +0.009*[#   5]
    |psi|^2 = 0.994
==== e(   5) =     1.83816 eV ==== 
     psi = 0.010*[#   3]+0.010*[#   4]+0.010*[#   7]+0.010*[#   8]
    |psi|^2 = 0.039
==== e(   6) =     2.52604 eV ==== 
     psi = 0.006*[#   2]+0.006*[#   6]
    |psi|^2 = 0.012
==== e(   7) =     2.66033 eV ==== 
     psi = 0.001*[#   3]+0.001*[#   4]+0.001*[#   7]+0.001*[#   8]
    |psi|^2 = 0.004
==== e(   8) =     3.66080 eV ==== 
     psi = 0.005*[#   2]+0.005*[#   6]
    |psi|^2 = 0.010

 k =   0.0833333333  0.2084875972  0.0000000000
==== e(   1) =   -21.22032 eV ==== 
     psi = 0.379*[#   1]+0.379*[#   5]+0.056*[#   3]+0.056*[#   4]+0.056*[#   7]
          +0.056*[#   8]
    |psi|^2 = 0.981
==== e(   2) =    -9.05146 eV ==== 
     psi = 0.483*[#   2]+0.483*[#   6]
    |psi|^2 = 0.966
==== e(   3) =    -7.98344 eV ==== 
     psi = 0.220*[#   3]+0.220*[#   4]+0.220*[#   7]+0.220*[#   8]+0.059*[#   1]
          +0.059*[#   5]
    |psi|^2 = 0.996
==== e(   4) =    -6.93443 eV ==== 
     psi = 0.243*[#   3]+0.243*[#   4]+0.243*[#   7]+0.243*[#   8]+0.011*[#   1]
          +0.011*[#   5]
    |psi|^2 = 0.993
==== e(   5) =     2.14804 eV ==== 
     psi = 0.010*[#   3]+0.010*[#   4]+0.010*[#   7]+0.010*[#   8]
    |psi|^2 = 0.041
==== e(   6) =     2.83985 eV ==== 
     psi = 0.005*[#   2]+0.005*[#   6]
    |psi|^2 = 0.011
==== e(   7) =     2.97687 eV ==== 
     psi = 0.001*[#   3]+0.001*[#   4]+0.001*[#   7]+0.001*[#   8]
    |psi|^2 = 0.004
==== e(   8) =     3.97339 eV ==== 
     psi = 0.004*[#   2]+0.004*[#   6]
    |psi|^2 = 0.009

 k =   0.0833333333  0.2405626122  0.0000000000
==== e(   1) =   -20.95900 eV ==== 
     psi = 0.360*[#   1]+0.360*[#   5]+0.065*[#   3]+0.065*[#   4]+0.065*[#   7]
          +0.065*[#   8]
    |psi|^2 = 0.981
==== e(   2) =    -8.73967 eV ==== 
     psi = 0.486*[#   2]+0.486*[#   6]
    |psi|^2 = 0.972
==== e(   3) =    -8.63251 eV ==== 
     psi = 0.213*[#   3]+0.213*[#   4]+0.213*[#   7]+0.213*[#   8]+0.071*[#   1]
          +0.071*[#   5]
    |psi|^2 = 0.995
==== e(   4) =    -7.28443 eV ==== 
     psi = 0.242*[#   3]+0.242*[#   4]+0.242*[#   7]+0.242*[#   8]+0.012*[#   1]
          +0.012*[#   5]
    |psi|^2 = 0.994
==== e(   5) =     2.50932 eV ==== 
     psi = 0.010*[#   3]+0.010*[#   4]+0.010*[#   7]+0.010*[#   8]
    |psi|^2 = 0.040
==== e(   6) =     3.20531 eV ==== 
     psi = 0.005*[#   2]+0.005*[#   6]
    |psi|^2 = 0.009
==== e(   7) =     3.34616 eV ==== 

    |psi|^2 = 0.004
==== e(   8) =     4.33700 eV ==== 
     psi = 0.004*[#   2]+0.004*[#   6]
    |psi|^2 = 0.008

 k =   0.0833333333  0.2726376271  0.0000000000
==== e(   1) =   -20.66134 eV ==== 
     psi = 0.342*[#   1]+0.342*[#   5]+0.074*[#   3]+0.074*[#   4]+0.074*[#   7]
          +0.074*[#   8]
    |psi|^2 = 0.980
==== e(   2) =    -9.32395 eV ==== 
     psi = 0.207*[#   3]+0.207*[#   4]+0.207*[#   7]+0.207*[#   8]+0.084*[#   1]
          +0.084*[#   5]
    |psi|^2 = 0.994
==== e(   3) =    -8.38676 eV ==== 
     psi = 0.488*[#   2]+0.488*[#   6]
    |psi|^2 = 0.977
==== e(   4) =    -7.61815 eV ==== 
     psi = 0.242*[#   3]+0.242*[#   4]+0.242*[#   7]+0.242*[#   8]+0.013*[#   1]
          +0.013*[#   5]
    |psi|^2 = 0.994
==== e(   5) =     2.92183 eV ==== 
     psi = 0.009*[#   3]+0.009*[#   4]+0.009*[#   7]+0.009*[#   8]
    |psi|^2 = 0.037
==== e(   6) =     3.62132 eV ==== 
     psi = 0.004*[#   2]+0.004*[#   6]
    |psi|^2 = 0.008
==== e(   7) =     3.76818 eV ==== 

    |psi|^2 = 0.003
==== e(   8) =     4.74801 eV ==== 
     psi = 0.006*[#   2]+0.006*[#   6]
    |psi|^2 = 0.012

 k =   0.0833333333  0.3047126421  0.0000000000
==== e(   1) =   -20.32780 eV ==== 
     psi = 0.326*[#   1]+0.326*[#   5]+0.082*[#   3]+0.082*[#   4]+0.082*[#   7]
          +0.082*[#   8]
    |psi|^2 = 0.980
==== e(   2) =   -10.04314 eV ==== 
     psi = 0.200*[#   3]+0.200*[#   4]+0.200*[#   7]+0.200*[#   8]+0.096*[#   1]
          +0.096*[#   5]
    |psi|^2 = 0.993
==== e(   3) =    -7.99465 eV ==== 
     psi = 0.491*[#   2]+0.491*[#   6]
    |psi|^2 = 0.982
==== e(   4) =    -7.92949 eV ==== 
     psi = 0.241*[#   3]+0.241*[#   4]+0.241*[#   7]+0.241*[#   8]+0.014*[#   1]
          +0.014*[#   5]
    |psi|^2 = 0.994
==== e(   5) =     3.38530 eV ==== 
     psi = 0.008*[#   3]+0.008*[#   4]+0.008*[#   7]+0.008*[#   8]
    |psi|^2 = 0.032
==== e(   6) =     4.08090 eV ==== 
     psi = 0.010*[#   2]+0.010*[#   6]
    |psi|^2 = 0.019
==== e(   7) =     4.24289 eV ==== 

    |psi|^2 = 0.003
==== e(   8) =     4.91326 eV ==== 
     psi = 0.416*[#   2]+0.416*[#   6]
    |psi|^2 = 0.831

 k =   0.0833333333  0.3367876570  0.0000000000
==== e(   1) =   -19.95894 eV ==== 
     psi = 0.310*[#   1]+0.310*[#   5]+0.090*[#   3]+0.090*[#   4]+0.090*[#   7]
          +0.090*[#   8]
    |psi|^2 = 0.980
==== e(   2) =   -10.77768 eV ==== 
     psi = 0.194*[#   3]+0.194*[#   4]+0.194*[#   7]+0.194*[#   8]+0.107*[#   1]
          +0.107*[#   5]
    |psi|^2 = 0.992
==== e(   3) =    -8.21417 eV ==== 
     psi = 0.241*[#   3]+0.241*[#   4]+0.241*[#   7]+0.241*[#   8]+0.015*[#   1]
          +0.015*[#   5]
    |psi|^2 = 0.995
==== e(   4) =    -7.56603 eV ==== 
     psi = 0.493*[#   2]+0.493*[#   6]
    |psi|^2 = 0.986
==== e(   5) =     3.89940 eV ==== 
     psi = 0.007*[#   3]+0.007*[#   4]+0.007*[#   7]+0.007*[#   8]
    |psi|^2 = 0.026
==== e(   6) =     4.10225 eV ==== 
     psi = 0.440*[#   2]+0.440*[#   6]
    |psi|^2 = 0.880
==== e(   7) =     4.65107 eV ==== 
     psi = 0.034*[#   2]+0.034*[#   6]
    |psi|^2 = 0.067
==== e(   8) =     4.77022 eV ==== 

    |psi|^2 = 0.002

 k =   0.0833333333  0.3688626720  0.0000000000
==== e(   1) =   -19.55551 eV ==== 
     psi = 0.296*[#   1]+0.296*[#   5]+0.097*[#   3]+0.097*[#   4]+0.097*[#   7]
          +0.097*[#   8]
    |psi|^2 = 0.981
==== e(   2) =   -11.51740 eV ==== 
     psi = 0.189*[#   3]+0.189*[#   4]+0.189*[#   7]+0.189*[#   8]+0.118*[#   1]
          +0.118*[#   5]
    |psi|^2 = 0.991
==== e(   3) =    -8.46891 eV ==== 
     psi = 0.241*[#   3]+0.241*[#   4]+0.241*[#   7]+0.241*[#   8]+0.015*[#   1]
          +0.015*[#   5]
    |psi|^2 = 0.995
==== e(   4) =    -7.10478 eV ==== 
     psi = 0.495*[#   2]+0.495*[#   6]
    |psi|^2 = 0.990
==== e(   5) =     3.32876 eV ==== 
     psi = 0.469*[#   2]+0.469*[#   6]
    |psi|^2 = 0.938
==== e(   6) =     4.46355 eV ==== 
     psi = 0.005*[#   3]+0.005*[#   4]+0.005*[#   7]+0.005*[#   8]
    |psi|^2 = 0.020
==== e(   7) =     5.20308 eV ==== 
     psi = 0.006*[#   2]+0.006*[#   6]
    |psi|^2 = 0.012
==== e(   8) =     5.35004 eV ==== 

    |psi|^2 = 0.001

 k =   0.0833333333  0.4009376869  0.0000000000
==== e(   1) =   -19.11847 eV ==== 
     psi = 0.284*[#   1]+0.284*[#   5]+0.103*[#   3]+0.103*[#   4]+0.103*[#   7]
          +0.103*[#   8]
    |psi|^2 = 0.981
==== e(   2) =   -12.25393 eV ==== 
     psi = 0.183*[#   3]+0.183*[#   4]+0.183*[#   7]+0.183*[#   8]+0.129*[#   1]
          +0.129*[#   5]
    |psi|^2 = 0.991
==== e(   3) =    -8.69120 eV ==== 
     psi = 0.241*[#   3]+0.241*[#   4]+0.241*[#   7]+0.241*[#   8]+0.015*[#   1]
          +0.015*[#   5]
    |psi|^2 = 0.995
==== e(   4) =    -6.61678 eV ==== 
     psi = 0.496*[#   2]+0.496*[#   6]
    |psi|^2 = 0.993
==== e(   5) =     2.54168 eV ==== 
     psi = 0.472*[#   2]+0.472*[#   6]
    |psi|^2 = 0.943
==== e(   6) =     5.07670 eV ==== 
     psi = 0.003*[#   3]+0.003*[#   4]+0.003*[#   7]+0.003*[#   8]
    |psi|^2 = 0.014
==== e(   7) =     5.82357 eV ==== 
     psi = 0.003*[#   2]+0.003*[#   6]
    |psi|^2 = 0.007
==== e(   8) =     5.98173 eV ==== 

    |psi|^2 = 0.002

 k =   0.0833333333  0.4330127019  0.0000000000
==== e(   1) =   -18.64922 eV ==== 
     psi = 0.273*[#   1]+0.273*[#   5]+0.109*[#   3]+0.109*[#   4]+0.109*[#   7]
          +0.109*[#   8]
    |psi|^2 = 0.982
==== e(   2) =   -12.98017 eV ==== 
     psi = 0.179*[#   3]+0.179*[#   4]+0.179*[#   7]+0.179*[#   8]+0.138*[#   1]
          +0.138*[#   5]
    |psi|^2 = 0.990
==== e(   3) =    -8.87908 eV ==== 
     psi = 0.241*[#   3]+0.241*[#   4]+0.241*[#   7]+0.241*[#   8]+0.015*[#   1]
          +0.015*[#   5]
    |psi|^2 = 0.995
==== e(   4) =    -6.11141 eV ==== 
     psi = 0.497*[#   2]+0.497*[#   6]
    |psi|^2 = 0.995
==== e(   5) =     1.77443 eV ==== 
     psi = 0.473*[#   2]+0.473*[#   6]
    |psi|^2 = 0.946
==== e(   6) =     5.73584 eV ==== 
     psi = 0.004*[#   1]+0.004*[#   5]+0.001*[#   3]+0.001*[#   4]+0.001*[#   7]
          +0.001*[#   8]
    |psi|^2 = 0.013
==== e(   7) =     6.49604 eV ==== 
     psi = 0.002*[#   2]+0.002*[#   6]
    |psi|^2 = 0.005
==== e(   8) =     6.65267 eV ==== 
     psi = 0.032*[#   1]+0.032*[#   5]+0.006*[#   3]+0.006*[#   4]+0.006*[#   7]
          +0.006*[#   8]
    |psi|^2 = 0.087

 k =   0.0833333333  0.4650877168  0.0000000000
==== e(   1) =   -18.15007 eV ==== 
     psi = 0.264*[#   1]+0.264*[#   5]+0.114*[#   3]+0.114*[#   4]+0.114*[#   7]
          +0.114*[#   8]
    |psi|^2 = 0.984
==== e(   2) =   -13.68952 eV ==== 
     psi = 0.174*[#   3]+0.174*[#   4]+0.174*[#   7]+0.174*[#   8]+0.145*[#   1]
          +0.145*[#   5]
    |psi|^2 = 0.989
==== e(   3) =    -9.03103 eV ==== 
     psi = 0.241*[#   3]+0.241*[#   4]+0.241*[#   7]+0.241*[#   8]+0.016*[#   1]
          +0.016*[#   5]
    |psi|^2 = 0.995
==== e(   4) =    -5.60452 eV ==== 
     psi = 0.498*[#   2]+0.498*[#   6]
    |psi|^2 = 0.996
==== e(   5) =     1.05049 eV ==== 
     psi = 0.474*[#   2]+0.474*[#   6]
    |psi|^2 = 0.947
==== e(   6) =     6.41450 eV ==== 
     psi = 0.044*[#   1]+0.044*[#   5]+0.003*[#   3]+0.003*[#   4]+0.003*[#   7]
          +0.003*[#   8]
    |psi|^2 = 0.101
==== e(   7) =     6.76158 eV ==== 
     psi = 0.256*[#   1]+0.256*[#   5]+0.065*[#   3]+0.065*[#   4]+0.065*[#   7]
          +0.065*[#   8]
    |psi|^2 = 0.771
==== e(   8) =     7.21773 eV ==== 
     psi = 0.002*[#   2]+0.002*[#   6]
    |psi|^2 = 0.004

 k =   0.0833333333  0.4971627318  0.0000000000
==== e(   1) =   -17.62570 eV ==== 
     psi = 0.259*[#   1]+0.259*[#   5]+0.117*[#   3]+0.117*[#   4]+0.117*[#   7]
          +0.117*[#   8]
    |psi|^2 = 0.985
==== e(   2) =   -14.37412 eV ==== 
     psi = 0.172*[#   3]+0.172*[#   4]+0.172*[#   7]+0.172*[#   8]+0.150*[#   1]
          +0.150*[#   5]
    |psi|^2 = 0.987
==== e(   3) =    -9.14592 eV ==== 
     psi = 0.241*[#   3]+0.241*[#   4]+0.241*[#   7]+0.241*[#   8]+0.016*[#   1]
          +0.016*[#   5]
    |psi|^2 = 0.995
==== e(   4) =    -5.12444 eV ==== 
     psi = 0.498*[#   2]+0.498*[#   6]
    |psi|^2 = 0.996
==== e(   5) =     0.40337 eV ==== 
     psi = 0.474*[#   2]+0.474*[#   6]
    |psi|^2 = 0.949
==== e(   6) =     6.63983 eV ==== 
     psi = 0.301*[#   1]+0.301*[#   5]+0.055*[#   3]+0.055*[#   4]+0.055*[#   7]
          +0.055*[#   8]
    |psi|^2 = 0.822
==== e(   7) =     7.24929 eV ==== 
     psi = 0.011*[#   1]+0.011*[#   5]+0.008*[#   3]+0.008*[#   4]+0.008*[#   7]
          +0.008*[#   8]
    |psi|^2 = 0.054
==== e(   8) =     7.98591 eV ==== 
     psi = 0.002*[#   2]+0.002*[#   6]
    |psi|^2 = 0.004

 k =   0.0833333333  0.5292377468  0.0000000000
==== e(   1) =   -17.08966 eV ==== 
     psi = 0.261*[#   1]+0.261*[#   5]+0.116*[#   3]+0.116*[#   4]+0.116*[#   7]
          +0.116*[#   8]
    |psi|^2 = 0.988
==== e(   2) =   -15.01816 eV ==== 
     psi = 0.173*[#   3]+0.173*[#   4]+0.173*[#   7]+0.173*[#   8]+0.147*[#   1]
          +0.147*[#   5]
    |psi|^2 = 0.985
==== e(   3) =    -9.22294 eV ==== 
     psi = 0.241*[#   3]+0.241*[#   4]+0.241*[#   7]+0.241*[#   8]+0.016*[#   1]
          +0.016*[#   5]
    |psi|^2 = 0.995
==== e(   4) =    -4.72248 eV ==== 
     psi = 0.499*[#   2]+0.499*[#   6]
    |psi|^2 = 0.997
==== e(   5) =    -0.11195 eV ==== 
     psi = 0.475*[#   2]+0.475*[#   6]
    |psi|^2 = 0.950
==== e(   6) =     6.62017 eV ==== 
     psi = 0.318*[#   1]+0.318*[#   5]+0.056*[#   3]+0.056*[#   4]+0.056*[#   7]
          +0.056*[#   8]
    |psi|^2 = 0.861
==== e(   7) =     8.04042 eV ==== 
     psi = 0.003*[#   3]+0.003*[#   4]+0.003*[#   7]+0.003*[#   8]+0.002*[#   1]
          +0.002*[#   5]
    |psi|^2 = 0.015
==== e(   8) =     8.79551 eV ==== 
     psi = 0.002*[#   2]+0.002*[#   6]
    |psi|^2 = 0.005

 k =   0.0833333333  0.5613127617  0.0000000000
==== e(   1) =   -16.61280 eV ==== 
     psi = 0.288*[#   1]+0.288*[#   5]+0.104*[#   3]+0.104*[#   4]+0.104*[#   7]
          +0.104*[#   8]
    |psi|^2 = 0.992
==== e(   2) =   -15.54937 eV ==== 
     psi = 0.185*[#   3]+0.185*[#   4]+0.185*[#   7]+0.185*[#   8]+0.120*[#   1]
          +0.120*[#   5]
    |psi|^2 = 0.981
==== e(   3) =    -9.26158 eV ==== 
     psi = 0.241*[#   3]+0.241*[#   4]+0.241*[#   7]+0.241*[#   8]+0.016*[#   1]
          +0.016*[#   5]
    |psi|^2 = 0.995
==== e(   4) =    -4.48081 eV ==== 
     psi = 0.499*[#   2]+0.499*[#   6]
    |psi|^2 = 0.998
==== e(   5) =    -0.41090 eV ==== 
     psi = 0.475*[#   2]+0.475*[#   6]
    |psi|^2 = 0.950
==== e(   6) =     6.60580 eV ==== 
     psi = 0.323*[#   1]+0.323*[#   5]+0.056*[#   3]+0.056*[#   4]+0.056*[#   7]
          +0.056*[#   8]
    |psi|^2 = 0.867
==== e(   7) =     8.88128 eV ==== 
     psi = 0.002*[#   1]+0.002*[#   5]+0.001*[#   3]+0.001*[#   4]+0.001*[#   7]
          +0.001*[#   8]
    |psi|^2 = 0.010
==== e(   8) =     9.62767 eV ==== 
     psi = 0.004*[#   2]+0.004*[#   6]
    |psi|^2 = 0.008

 k =   0.1111111111  0.1924500897  0.0000000000
==== e(   1) =   -21.23902 eV ==== 
     psi = 0.380*[#   1]+0.380*[#   5]+0.055*[#   3]+0.055*[#   4]+0.055*[#   7]
          +0.055*[#   8]
    |psi|^2 = 0.981
==== e(   2) =    -9.07376 eV ==== 
     psi = 0.483*[#   2]+0.483*[#   6]
    |psi|^2 = 0.966
==== e(   3) =    -7.88195 eV ==== 
     psi = 0.221*[#   3]+0.221*[#   4]+0.221*[#   7]+0.221*[#   8]+0.056*[#   1]
          +0.056*[#   5]
    |psi|^2 = 0.997
==== e(   4) =    -6.97160 eV ==== 
     psi = 0.241*[#   3]+0.241*[#   4]+0.241*[#   7]+0.241*[#   8]+0.013*[#   1]
          +0.013*[#   5]
    |psi|^2 = 0.992
==== e(   5) =     2.12233 eV ==== 
     psi = 0.010*[#   3]+0.010*[#   4]+0.010*[#   7]+0.010*[#   8]
    |psi|^2 = 0.041
==== e(   6) =     2.81378 eV ==== 
     psi = 0.005*[#   2]+0.005*[#   6]
    |psi|^2 = 0.011
==== e(   7) =     2.95052 eV ==== 
     psi = 0.001*[#   3]+0.001*[#   4]+0.001*[#   7]+0.001*[#   8]
    |psi|^2 = 0.004
==== e(   8) =     3.94749 eV ==== 
     psi = 0.004*[#   2]+0.004*[#   6]
    |psi|^2 = 0.009

 k =   0.1111111111  0.2245251047  0.0000000000
==== e(   1) =   -20.99632 eV ==== 
     psi = 0.363*[#   1]+0.363*[#   5]+0.064*[#   3]+0.064*[#   4]+0.064*[#   7]
          +0.064*[#   8]
    |psi|^2 = 0.981
==== e(   2) =    -8.78383 eV ==== 
     psi = 0.486*[#   2]+0.486*[#   6]
    |psi|^2 = 0.971
==== e(   3) =    -8.43593 eV ==== 
     psi = 0.216*[#   3]+0.216*[#   4]+0.216*[#   7]+0.216*[#   8]+0.067*[#   1]
          +0.067*[#   5]
    |psi|^2 = 0.997
==== e(   4) =    -7.37094 eV ==== 
     psi = 0.240*[#   3]+0.240*[#   4]+0.240*[#   7]+0.240*[#   8]+0.017*[#   1]
          +0.017*[#   5]
    |psi|^2 = 0.992
==== e(   5) =     2.45798 eV ==== 
     psi = 0.010*[#   3]+0.010*[#   4]+0.010*[#   7]+0.010*[#   8]
    |psi|^2 = 0.041
==== e(   6) =     3.15343 eV ==== 
     psi = 0.005*[#   2]+0.005*[#   6]
    |psi|^2 = 0.009
==== e(   7) =     3.29347 eV ==== 
     psi = 0.001*[#   3]+0.001*[#   4]+0.001*[#   7]+0.001*[#   8]
    |psi|^2 = 0.004
==== e(   8) =     4.28575 eV ==== 
     psi = 0.004*[#   2]+0.004*[#   6]
    |psi|^2 = 0.008

 k =   0.1111111111  0.2566001196  0.0000000000
==== e(   1) =   -20.71715 eV ==== 
     psi = 0.345*[#   1]+0.345*[#   5]+0.072*[#   3]+0.072*[#   4]+0.072*[#   7]
          +0.072*[#   8]
    |psi|^2 = 0.980
==== e(   2) =    -9.05056 eV ==== 
     psi = 0.210*[#   3]+0.210*[#   4]+0.210*[#   7]+0.210*[#   8]+0.078*[#   1]
          +0.078*[#   5]
    |psi|^2 = 0.996
==== e(   3) =    -8.45212 eV ==== 
     psi = 0.488*[#   2]+0.488*[#   6]
    |psi|^2 = 0.976
==== e(   4) =    -7.75186 eV ==== 
     psi = 0.238*[#   3]+0.238*[#   4]+0.238*[#   7]+0.238*[#   8]+0.019*[#   1]
          +0.019*[#   5]
    |psi|^2 = 0.992
==== e(   5) =     2.84495 eV ==== 
     psi = 0.009*[#   3]+0.009*[#   4]+0.009*[#   7]+0.009*[#   8]
    |psi|^2 = 0.038
==== e(   6) =     3.54446 eV ==== 
     psi = 0.004*[#   2]+0.004*[#   6]
    |psi|^2 = 0.008
==== e(   7) =     3.68916 eV ==== 

    |psi|^2 = 0.004
==== e(   8) =     4.67445 eV ==== 
     psi = 0.004*[#   2]+0.004*[#   6]
    |psi|^2 = 0.007

 k =   0.1111111111  0.2886751346  0.0000000000
==== e(   1) =   -20.40194 eV ==== 
     psi = 0.329*[#   1]+0.329*[#   5]+0.081*[#   3]+0.081*[#   4]+0.081*[#   7]
          +0.081*[#   8]
    |psi|^2 = 0.980
==== e(   2) =    -9.71354 eV ==== 
     psi = 0.204*[#   3]+0.204*[#   4]+0.204*[#   7]+0.204*[#   8]+0.090*[#   1]
          +0.090*[#   5]
    |psi|^2 = 0.995
==== e(   3) =    -8.10321 eV ==== 
     psi = 0.238*[#   3]+0.238*[#   4]+0.238*[#   7]+0.238*[#   8]+0.021*[#   1]
          +0.021*[#   5]
    |psi|^2 = 0.992
==== e(   4) =    -8.08027 eV ==== 
     psi = 0.490*[#   2]+0.490*[#   6]
    |psi|^2 = 0.981
==== e(   5) =     3.28301 eV ==== 
     psi = 0.008*[#   3]+0.008*[#   4]+0.008*[#   7]+0.008*[#   8]
    |psi|^2 = 0.034
==== e(   6) =     3.98468 eV ==== 
     psi = 0.004*[#   2]+0.004*[#   6]
    |psi|^2 = 0.009
==== e(   7) =     4.13756 eV ==== 

    |psi|^2 = 0.003
==== e(   8) =     5.06494 eV ==== 
     psi = 0.174*[#   2]+0.174*[#   6]
    |psi|^2 = 0.347

 k =   0.1111111111  0.3207501495  0.0000000000
==== e(   1) =   -20.05121 eV ==== 
     psi = 0.314*[#   1]+0.314*[#   5]+0.088*[#   3]+0.088*[#   4]+0.088*[#   7]
          +0.088*[#   8]
    |psi|^2 = 0.980
==== e(   2) =   -10.40945 eV ==== 
     psi = 0.198*[#   3]+0.198*[#   4]+0.198*[#   7]+0.198*[#   8]+0.102*[#   1]
          +0.102*[#   5]
    |psi|^2 = 0.994
==== e(   3) =    -8.42116 eV ==== 
     psi = 0.237*[#   3]+0.237*[#   4]+0.237*[#   7]+0.237*[#   8]+0.022*[#   1]
          +0.022*[#   5]
    |psi|^2 = 0.993
==== e(   4) =    -7.67048 eV ==== 
     psi = 0.493*[#   2]+0.493*[#   6]
    |psi|^2 = 0.985
==== e(   5) =     3.77188 eV ==== 
     psi = 0.007*[#   3]+0.007*[#   4]+0.007*[#   7]+0.007*[#   8]
    |psi|^2 = 0.029
==== e(   6) =     4.33305 eV ==== 
     psi = 0.338*[#   2]+0.338*[#   6]
    |psi|^2 = 0.675
==== e(   7) =     4.54408 eV ==== 
     psi = 0.140*[#   2]+0.140*[#   6]
    |psi|^2 = 0.280
==== e(   8) =     4.63865 eV ==== 

    |psi|^2 = 0.002

 k =   0.1111111111  0.3528251645  0.0000000000
==== e(   1) =   -19.66565 eV ==== 
     psi = 0.300*[#   1]+0.300*[#   5]+0.095*[#   3]+0.095*[#   4]+0.095*[#   7]
          +0.095*[#   8]
    |psi|^2 = 0.981
==== e(   2) =   -11.12408 eV ==== 
     psi = 0.192*[#   3]+0.192*[#   4]+0.192*[#   7]+0.192*[#   8]+0.113*[#   1]
          +0.113*[#   5]
    |psi|^2 = 0.993
==== e(   3) =    -8.70435 eV ==== 
     psi = 0.237*[#   3]+0.237*[#   4]+0.237*[#   7]+0.237*[#   8]+0.023*[#   1]
          +0.023*[#   5]
    |psi|^2 = 0.994
==== e(   4) =    -7.22593 eV ==== 
     psi = 0.495*[#   2]+0.495*[#   6]
    |psi|^2 = 0.989
==== e(   5) =     3.61649 eV ==== 
     psi = 0.473*[#   2]+0.473*[#   6]
    |psi|^2 = 0.945
==== e(   6) =     4.31115 eV ==== 
     psi = 0.006*[#   3]+0.006*[#   4]+0.006*[#   7]+0.006*[#   8]
    |psi|^2 = 0.023
==== e(   7) =     5.04058 eV ==== 
     psi = 0.006*[#   2]+0.006*[#   6]
    |psi|^2 = 0.012
==== e(   8) =     5.19236 eV ==== 

    |psi|^2 = 0.002

 k =   0.1111111111  0.3849001795  0.0000000000
==== e(   1) =   -19.24611 eV ==== 
     psi = 0.287*[#   1]+0.287*[#   5]+0.102*[#   3]+0.102*[#   4]+0.102*[#   7]
          +0.102*[#   8]
    |psi|^2 = 0.981
==== e(   2) =   -11.84573 eV ==== 
     psi = 0.186*[#   3]+0.186*[#   4]+0.186*[#   7]+0.186*[#   8]+0.123*[#   1]
          +0.123*[#   5]
    |psi|^2 = 0.992
==== e(   3) =    -8.95191 eV ==== 
     psi = 0.237*[#   3]+0.237*[#   4]+0.237*[#   7]+0.237*[#   8]+0.024*[#   1]
          +0.024*[#   5]
    |psi|^2 = 0.994
==== e(   4) =    -6.75124 eV ==== 
     psi = 0.496*[#   2]+0.496*[#   6]
    |psi|^2 = 0.992
==== e(   5) =     2.84746 eV ==== 
     psi = 0.475*[#   2]+0.475*[#   6]
    |psi|^2 = 0.950
==== e(   6) =     4.90022 eV ==== 
     psi = 0.004*[#   3]+0.004*[#   4]+0.004*[#   7]+0.004*[#   8]
    |psi|^2 = 0.017
==== e(   7) =     5.63471 eV ==== 
     psi = 0.003*[#   2]+0.003*[#   6]
    |psi|^2 = 0.006
==== e(   8) =     5.79855 eV ==== 

    |psi|^2 = 0.001

 k =   0.1111111111  0.4169751944  0.0000000000
==== e(   1) =   -18.79378 eV ==== 
     psi = 0.275*[#   1]+0.275*[#   5]+0.108*[#   3]+0.108*[#   4]+0.108*[#   7]
          +0.108*[#   8]
    |psi|^2 = 0.982
==== e(   2) =   -12.56494 eV ==== 
     psi = 0.181*[#   3]+0.181*[#   4]+0.181*[#   7]+0.181*[#   8]+0.133*[#   1]
          +0.133*[#   5]
    |psi|^2 = 0.991
==== e(   3) =    -9.16305 eV ==== 
     psi = 0.236*[#   3]+0.236*[#   4]+0.236*[#   7]+0.236*[#   8]+0.024*[#   1]
          +0.024*[#   5]
    |psi|^2 = 0.994
==== e(   4) =    -6.25359 eV ==== 
     psi = 0.497*[#   2]+0.497*[#   6]
    |psi|^2 = 0.994
==== e(   5) =     2.08636 eV ==== 
     psi = 0.476*[#   2]+0.476*[#   6]
    |psi|^2 = 0.952
==== e(   6) =     5.53798 eV ==== 
     psi = 0.003*[#   3]+0.003*[#   4]+0.003*[#   7]+0.003*[#   8]
    |psi|^2 = 0.012
==== e(   7) =     6.28037 eV ==== 
     psi = 0.002*[#   2]+0.002*[#   6]
    |psi|^2 = 0.004
==== e(   8) =     6.45669 eV ==== 

    |psi|^2 = 0.002

 k =   0.1111111111  0.4490502094  0.0000000000
==== e(   1) =   -18.31049 eV ==== 
     psi = 0.266*[#   1]+0.266*[#   5]+0.113*[#   3]+0.113*[#   4]+0.113*[#   7]
          +0.113*[#   8]
    |psi|^2 = 0.983
==== e(   2) =   -13.27371 eV ==== 
     psi = 0.177*[#   3]+0.177*[#   4]+0.177*[#   7]+0.177*[#   8]+0.141*[#   1]
          +0.141*[#   5]
    |psi|^2 = 0.990
==== e(   3) =    -9.33699 eV ==== 
     psi = 0.236*[#   3]+0.236*[#   4]+0.236*[#   7]+0.236*[#   8]+0.025*[#   1]
          +0.025*[#   5]
    |psi|^2 = 0.994
==== e(   4) =    -5.74475 eV ==== 
     psi = 0.498*[#   2]+0.498*[#   6]
    |psi|^2 = 0.995
==== e(   5) =     1.35279 eV ==== 
     psi = 0.476*[#   2]+0.476*[#   6]
    |psi|^2 = 0.953
==== e(   6) =     6.22154 eV ==== 
     psi = 0.003*[#   1]+0.003*[#   5]+0.001*[#   3]+0.001*[#   4]+0.001*[#   7]
          +0.001*[#   8]
    |psi|^2 = 0.012
==== e(   7) =     6.97455 eV ==== 
     psi = 0.002*[#   2]+0.002*[#   6]
    |psi|^2 = 0.004
==== e(   8) =     7.15478 eV ==== 
     psi = 0.031*[#   1]+0.031*[#   5]+0.006*[#   3]+0.006*[#   4]+0.006*[#   7]
          +0.006*[#   8]
    |psi|^2 = 0.087

[...]
==== e(   4) =    -6.00569 eV ==== 
     psi = 0.497*[#   2]+0.497*[#   6]
    |psi|^2 = 0.995
==== e(   5) =     2.04144 eV ==== 
     psi = 0.488*[#   2]+0.488*[#   6]
    |psi|^2 = 0.975
==== e(   6) =     5.82199 eV ==== 
     psi = 0.003*[#   3]+0.003*[#   4]+0.003*[#   7]+0.003*[#   8]
    |psi|^2 = 0.013
==== e(   7) =     6.52595 eV ==== 

    |psi|^2 = 0.001
==== e(   8) =     6.74836 eV ==== 

    |psi|^2 = 0.001

 k =   0.2222222222  0.4169751944  0.0000000000
==== e(   1) =   -18.15357 eV ==== 
     psi = 0.259*[#   1]+0.259*[#   5]+0.116*[#   3]+0.116*[#   4]+0.116*[#   7]
          +0.116*[#   8]
    |psi|^2 = 0.983
==== e(   2) =   -12.42437 eV ==== 
     psi = 0.174*[#   3]+0.174*[#   4]+0.174*[#   7]+0.174*[#   8]+0.148*[#   1]
          +0.148*[#   5]
    |psi|^2 = 0.995
==== e(   3) =   -10.94041 eV ==== 
     psi = 0.227*[#   3]+0.227*[#   4]+0.227*[#   7]+0.227*[#   8]+0.040*[#   1]
          +0.040*[#   5]
    |psi|^2 = 0.989
==== e(   4) =    -5.51483 eV ==== 
     psi = 0.498*[#   2]+0.498*[#   6]
    |psi|^2 = 0.996
==== e(   5) =     1.42199 eV ==== 
     psi = 0.489*[#   2]+0.489*[#   6]
    |psi|^2 = 0.977
==== e(   6) =     6.45693 eV ==== 
     psi = 0.002*[#   3]+0.002*[#   4]+0.002*[#   7]+0.002*[#   8]
    |psi|^2 = 0.010
==== e(   7) =     7.14168 eV ==== 

    |psi|^2 = 0.001
==== e(   8) =     7.40710 eV ==== 

    |psi|^2 = 0.001

 k =   0.2222222222  0.4490502094  0.0000000000
==== e(   1) =   -17.67969 eV ==== 
     psi = 0.250*[#   1]+0.250*[#   5]+0.121*[#   3]+0.121*[#   4]+0.121*[#   7]
          +0.121*[#   8]
    |psi|^2 = 0.985
==== e(   2) =   -12.97563 eV ==== 
     psi = 0.171*[#   3]+0.171*[#   4]+0.171*[#   7]+0.171*[#   8]+0.154*[#   1]
          +0.154*[#   5]
    |psi|^2 = 0.993
==== e(   3) =   -11.23001 eV ==== 
     psi = 0.226*[#   3]+0.226*[#   4]+0.226*[#   7]+0.226*[#   8]+0.043*[#   1]
          +0.043*[#   5]
    |psi|^2 = 0.989
==== e(   4) =    -5.00777 eV ==== 
     psi = 0.498*[#   2]+0.498*[#   6]
    |psi|^2 = 0.996
==== e(   5) =     0.80606 eV ==== 
     psi = 0.489*[#   2]+0.489*[#   6]
    |psi|^2 = 0.979
==== e(   6) =     7.13818 eV ==== 
     psi = 0.001*[#   3]+0.001*[#   4]+0.001*[#   7]+0.001*[#   8]+0.001*[#   1]
          +0.001*[#   5]
    |psi|^2 = 0.008
==== e(   7) =     7.77658 eV ==== 

    |psi|^2 = 0.001
==== e(   8) =     8.11810 eV ==== 

    |psi|^2 = 0.001

 k =   0.2222222222  0.4811252243  0.0000000000
==== e(   1) =   -17.18050 eV ==== 
     psi = 0.243*[#   1]+0.243*[#   5]+0.125*[#   3]+0.125*[#   4]+0.125*[#   7]
          +0.125*[#   8]
    |psi|^2 = 0.986
==== e(   2) =   -13.56231 eV ==== 
     psi = 0.169*[#   3]+0.169*[#   4]+0.169*[#   7]+0.169*[#   8]+0.158*[#   1]
          +0.158*[#   5]
    |psi|^2 = 0.992
==== e(   3) =   -11.43431 eV ==== 
     psi = 0.224*[#   3]+0.224*[#   4]+0.224*[#   7]+0.224*[#   8]+0.047*[#   1]
          +0.047*[#   5]
    |psi|^2 = 0.989
==== e(   4) =    -4.50029 eV ==== 
     psi = 0.498*[#   2]+0.498*[#   6]
    |psi|^2 = 0.996
==== e(   5) =     0.21114 eV ==== 
     psi = 0.490*[#   2]+0.490*[#   6]
    |psi|^2 = 0.979
==== e(   6) =     7.86287 eV ==== 
     psi = 0.003*[#   1]+0.003*[#   5]
    |psi|^2 = 0.009
==== e(   7) =     8.38395 eV ==== 

    |psi|^2 = 0.002
==== e(   8) =     8.88098 eV ==== 

    |psi|^2 = 0.002

 k =   0.2222222222  0.5132002393  0.0000000000
==== e(   1) =   -16.66433 eV ==== 
     psi = 0.240*[#   1]+0.240*[#   5]+0.127*[#   3]+0.127*[#   4]+0.127*[#   7]
          +0.127*[#   8]
    |psi|^2 = 0.988
==== e(   2) =   -14.15426 eV ==== 
     psi = 0.168*[#   3]+0.168*[#   4]+0.168*[#   7]+0.168*[#   8]+0.159*[#   1]
          +0.159*[#   5]
    |psi|^2 = 0.990
==== e(   3) =   -11.57022 eV ==== 
     psi = 0.222*[#   3]+0.222*[#   4]+0.222*[#   7]+0.222*[#   8]+0.050*[#   1]
          +0.050*[#   5]
    |psi|^2 = 0.990
==== e(   4) =    -4.02385 eV ==== 
     psi = 0.498*[#   2]+0.498*[#   6]
    |psi|^2 = 0.996
==== e(   5) =    -0.32949 eV ==== 
     psi = 0.490*[#   2]+0.490*[#   6]
    |psi|^2 = 0.979
==== e(   6) =     8.62563 eV ==== 
     psi = 0.005*[#   1]+0.005*[#   5]
    |psi|^2 = 0.015
==== e(   7) =     8.85463 eV ==== 
     psi = 0.002*[#   2]+0.002*[#   6]
    |psi|^2 = 0.005
==== e(   8) =     9.69373 eV ==== 
     psi = 0.003*[#   1]+0.003*[#   5]
    |psi|^2 = 0.009

 k =   0.2222222222  0.5452752542  0.0000000000
==== e(   1) =   -16.16022 eV ==== 
     psi = 0.246*[#   1]+0.246*[#   5]+0.124*[#   3]+0.124*[#   4]+0.124*[#   7]
          +0.124*[#   8]
    |psi|^2 = 0.990
==== e(   2) =   -14.70854 eV ==== 
     psi = 0.171*[#   3]+0.171*[#   4]+0.171*[#   7]+0.171*[#   8]+0.151*[#   1]
          +0.151*[#   5]
    |psi|^2 = 0.987
==== e(   3) =   -11.64833 eV ==== 
     psi = 0.222*[#   3]+0.222*[#   4]+0.222*[#   7]+0.222*[#   8]+0.051*[#   1]
          +0.051*[#   5]
    |psi|^2 = 0.990
==== e(   4) =    -3.64638 eV ==== 
     psi = 0.498*[#   2]+0.498*[#   6]
    |psi|^2 = 0.996
==== e(   5) =    -0.74624 eV ==== 
     psi = 0.489*[#   2]+0.489*[#   6]
    |psi|^2 = 0.979
==== e(   6) =     9.09143 eV ==== 
     psi = 0.004*[#   2]+0.004*[#   6]
    |psi|^2 = 0.008
==== e(   7) =     9.41313 eV ==== 
     psi = 0.015*[#   1]+0.015*[#   5]+0.003*[#   3]+0.003*[#   4]+0.003*[#   7]
          +0.003*[#   8]
    |psi|^2 = 0.040
==== e(   8) =    10.03518 eV ==== 
     psi = 0.230*[#   1]+0.230*[#   5]+0.068*[#   3]+0.068*[#   4]+0.068*[#   7]
          +0.068*[#   8]
    |psi|^2 = 0.733

 k =   0.2222222222  0.5773502692  0.0000000000
==== e(   1) =   -15.85885 eV ==== 
     psi = 0.268*[#   1]+0.268*[#   5]+0.114*[#   3]+0.114*[#   4]+0.114*[#   7]
          +0.114*[#   8]
    |psi|^2 = 0.993
==== e(   2) =   -15.02734 eV ==== 
     psi = 0.182*[#   3]+0.182*[#   4]+0.182*[#   7]+0.182*[#   8]+0.129*[#   1]
          +0.129*[#   5]
    |psi|^2 = 0.985
==== e(   3) =   -11.67386 eV ==== 
     psi = 0.221*[#   3]+0.221*[#   4]+0.221*[#   7]+0.221*[#   8]+0.052*[#   1]
          +0.052*[#   5]
    |psi|^2 = 0.990
==== e(   4) =    -3.49198 eV ==== 
     psi = 0.498*[#   2]+0.498*[#   6]
    |psi|^2 = 0.997
==== e(   5) =    -0.91387 eV ==== 
     psi = 0.489*[#   2]+0.489*[#   6]
    |psi|^2 = 0.979
==== e(   6) =     9.15200 eV ==== 
     psi = 0.005*[#   2]+0.005*[#   6]
    |psi|^2 = 0.009
==== e(   7) =     9.98215 eV ==== 
     psi = 0.234*[#   1]+0.234*[#   5]+0.063*[#   3]+0.063*[#   4]+0.063*[#   7]
          +0.063*[#   8]
    |psi|^2 = 0.720
==== e(   8) =    10.13863 eV ==== 
     psi = 0.018*[#   1]+0.018*[#   5]+0.004*[#   3]+0.004*[#   4]+0.004*[#   7]
          +0.004*[#   8]
    |psi|^2 = 0.053

 k =   0.2500000000  0.4330127019  0.0000000000
==== e(   1) =   -17.69725 eV ==== 
     psi = 0.250*[#   1]+0.250*[#   5]+0.121*[#   3]+0.121*[#   4]+0.121*[#   7]
          +0.121*[#   8]
    |psi|^2 = 0.985
==== e(   2) =   -12.80585 eV ==== 
     psi = 0.168*[#   3]+0.168*[#   4]+0.168*[#   7]+0.168*[#   8]+0.161*[#   1]
          +0.161*[#   5]
    |psi|^2 = 0.995
==== e(   3) =   -11.40363 eV ==== 
     psi = 0.228*[#   3]+0.228*[#   4]+0.228*[#   7]+0.228*[#   8]+0.038*[#   1]
          +0.038*[#   5]
    |psi|^2 = 0.988
==== e(   4) =    -5.01843 eV ==== 
     psi = 0.498*[#   2]+0.498*[#   6]
    |psi|^2 = 0.996
==== e(   5) =     0.84720 eV ==== 
     psi = 0.490*[#   2]+0.490*[#   6]
    |psi|^2 = 0.981
==== e(   6) =     7.11296 eV ==== 
     psi = 0.001*[#   3]+0.001*[#   4]+0.001*[#   7]+0.001*[#   8]+0.001*[#   1]
          +0.001*[#   5]
    |psi|^2 = 0.008
==== e(   7) =     7.74327 eV ==== 

    |psi|^2 = 0.000
==== e(   8) =     8.09183 eV ==== 

    |psi|^2 = 0.001

 k =   0.2500000000  0.4650877168  0.0000000000
==== e(   1) =   -17.21433 eV ==== 
     psi = 0.243*[#   1]+0.243*[#   5]+0.125*[#   3]+0.125*[#   4]+0.125*[#   7]
          +0.125*[#   8]
    |psi|^2 = 0.986
==== e(   2) =   -13.25919 eV ==== 
     psi = 0.169*[#   1]+0.169*[#   5]+0.164*[#   3]+0.164*[#   4]+0.164*[#   7]
          +0.164*[#   8]
    |psi|^2 = 0.994
==== e(   3) =   -11.75304 eV ==== 
     psi = 0.228*[#   3]+0.228*[#   4]+0.228*[#   7]+0.228*[#   8]+0.039*[#   1]
          +0.039*[#   5]
    |psi|^2 = 0.987
==== e(   4) =    -4.50970 eV ==== 
     psi = 0.498*[#   2]+0.498*[#   6]
    |psi|^2 = 0.996
==== e(   5) =     0.27570 eV ==== 
     psi = 0.492*[#   2]+0.492*[#   6]
    |psi|^2 = 0.983
==== e(   6) =     7.81270 eV ==== 
     psi = 0.002*[#   1]+0.002*[#   5]+0.001*[#   3]+0.001*[#   4]+0.001*[#   7]
          +0.001*[#   8]
    |psi|^2 = 0.008
==== e(   7) =     8.30395 eV ==== 

    |psi|^2 = 0.000
==== e(   8) =     8.82858 eV ==== 

    |psi|^2 = 0.001

 k =   0.2500000000  0.4971627318  0.0000000000
==== e(   1) =   -16.71041 eV ==== 
     psi = 0.237*[#   1]+0.237*[#   5]+0.128*[#   3]+0.128*[#   4]+0.128*[#   7]
          +0.128*[#   8]
    |psi|^2 = 0.987
==== e(   2) =   -13.77391 eV ==== 
     psi = 0.172*[#   1]+0.172*[#   5]+0.162*[#   3]+0.162*[#   4]+0.162*[#   7]
          +0.162*[#   8]
    |psi|^2 = 0.992
==== e(   3) =   -11.98722 eV ==== 
     psi = 0.226*[#   3]+0.226*[#   4]+0.226*[#   7]+0.226*[#   8]+0.042*[#   1]
          +0.042*[#   5]
    |psi|^2 = 0.987
==== e(   4) =    -4.00717 eV ==== 
     psi = 0.498*[#   2]+0.498*[#   6]
    |psi|^2 = 0.996
==== e(   5) =    -0.27427 eV ==== 
     psi = 0.492*[#   2]+0.492*[#   6]
    |psi|^2 = 0.984
==== e(   6) =     8.55131 eV ==== 
     psi = 0.004*[#   1]+0.004*[#   5]
    |psi|^2 = 0.013
==== e(   7) =     8.70194 eV ==== 

    |psi|^2 = 0.002
==== e(   8) =     9.61678 eV ==== 

    |psi|^2 = 0.002

 k =   0.2500000000  0.5292377468  0.0000000000
==== e(   1) =   -16.19980 eV ==== 
     psi = 0.236*[#   1]+0.236*[#   5]+0.129*[#   3]+0.129*[#   4]+0.129*[#   7]
          +0.129*[#   8]
    |psi|^2 = 0.989
==== e(   2) =   -14.30963 eV ==== 
     psi = 0.169*[#   1]+0.169*[#   5]+0.163*[#   3]+0.163*[#   4]+0.163*[#   7]
          +0.163*[#   8]
    |psi|^2 = 0.991
==== e(   3) =   -12.12776 eV ==== 
     psi = 0.224*[#   3]+0.224*[#   4]+0.224*[#   7]+0.224*[#   8]+0.046*[#   1]
          +0.046*[#   5]
    |psi|^2 = 0.988
==== e(   4) =    -3.55204 eV ==== 
     psi = 0.498*[#   2]+0.498*[#   6]
    |psi|^2 = 0.996
==== e(   5) =    -0.76134 eV ==== 
     psi = 0.492*[#   2]+0.492*[#   6]
    |psi|^2 = 0.985
==== e(   6) =     8.86937 eV ==== 
     psi = 0.002*[#   2]+0.002*[#   6]
    |psi|^2 = 0.004
==== e(   7) =     9.31898 eV ==== 
     psi = 0.009*[#   1]+0.009*[#   5]+0.002*[#   3]+0.002*[#   4]+0.002*[#   7]
          +0.002*[#   8]
    |psi|^2 = 0.024
==== e(   8) =    10.45354 eV ==== 
     psi = 0.004*[#   1]+0.004*[#   5]+0.001*[#   3]+0.001*[#   4]+0.001*[#   7]
          +0.001*[#   8]
    |psi|^2 = 0.013

 k =   0.2500000000  0.5613127617  0.0000000000
==== e(   1) =   -15.75034 eV ==== 
     psi = 0.250*[#   1]+0.250*[#   5]+0.123*[#   3]+0.123*[#   4]+0.123*[#   7]
          +0.123*[#   8]
    |psi|^2 = 0.992
==== e(   2) =   -14.77677 eV ==== 
     psi = 0.170*[#   3]+0.170*[#   4]+0.170*[#   7]+0.170*[#   8]+0.154*[#   1]
          +0.154*[#   5]
    |psi|^2 = 0.988
==== e(   3) =   -12.19358 eV ==== 
     psi = 0.223*[#   3]+0.223*[#   4]+0.223*[#   7]+0.223*[#   8]+0.048*[#   1]
          +0.048*[#   5]
    |psi|^2 = 0.988
==== e(   4) =    -3.24429 eV ==== 
     psi = 0.498*[#   2]+0.498*[#   6]
    |psi|^2 = 0.996
==== e(   5) =    -1.08519 eV ==== 
     psi = 0.492*[#   2]+0.492*[#   6]
    |psi|^2 = 0.984
==== e(   6) =     8.90944 eV ==== 
     psi = 0.002*[#   2]+0.002*[#   6]
    |psi|^2 = 0.005
==== e(   7) =    10.08915 eV ==== 
     psi = 0.021*[#   1]+0.021*[#   5]+0.005*[#   3]+0.005*[#   4]+0.005*[#   7]
          +0.005*[#   8]
    |psi|^2 = 0.061
==== e(   8) =    10.70112 eV ==== 
     psi = 0.191*[#   1]+0.191*[#   5]+0.054*[#   3]+0.054*[#   4]+0.054*[#   7]
          +0.054*[#   8]
    |psi|^2 = 0.598

 k =   0.2777777778  0.4811252243  0.0000000000
==== e(   1) =   -16.72606 eV ==== 
     psi = 0.236*[#   1]+0.236*[#   5]+0.129*[#   3]+0.129*[#   4]+0.129*[#   7]
          +0.129*[#   8]
    |psi|^2 = 0.987
==== e(   2) =   -13.59544 eV ==== 
     psi = 0.183*[#   1]+0.183*[#   5]+0.157*[#   3]+0.157*[#   4]+0.157*[#   7]
          +0.157*[#   8]
    |psi|^2 = 0.994
==== e(   3) =   -12.17810 eV ==== 
     psi = 0.230*[#   3]+0.230*[#   4]+0.230*[#   7]+0.230*[#   8]+0.032*[#   1]
          +0.032*[#   5]
    |psi|^2 = 0.986
==== e(   4) =    -4.00222 eV ==== 
     psi = 0.498*[#   2]+0.498*[#   6]
    |psi|^2 = 0.996
==== e(   5) =    -0.25368 eV ==== 
     psi = 0.493*[#   2]+0.493*[#   6]
    |psi|^2 = 0.986
==== e(   6) =     8.52632 eV ==== 
     psi = 0.004*[#   1]+0.004*[#   5]
    |psi|^2 = 0.012
==== e(   7) =     8.64847 eV ==== 

    |psi|^2 = 0.001
==== e(   8) =     9.59063 eV ==== 

    |psi|^2 = 0.002

 k =   0.2777777778  0.5132002393  0.0000000000
==== e(   1) =   -16.22348 eV ==== 
     psi = 0.232*[#   1]+0.232*[#   5]+0.131*[#   3]+0.131*[#   4]+0.131*[#   7]
          +0.131*[#   8]
    |psi|^2 = 0.989
==== e(   2) =   -14.00659 eV ==== 
     psi = 0.189*[#   1]+0.189*[#   5]+0.154*[#   3]+0.154*[#   4]+0.154*[#   7]
          +0.154*[#   8]
    |psi|^2 = 0.993
==== e(   3) =   -12.46848 eV ==== 
     psi = 0.231*[#   3]+0.231*[#   4]+0.231*[#   7]+0.231*[#   8]+0.031*[#   1]
          +0.031*[#   5]
    |psi|^2 = 0.985
==== e(   4) =    -3.50557 eV ==== 
     psi = 0.498*[#   2]+0.498*[#   6]
    |psi|^2 = 0.995
==== e(   5) =    -0.76433 eV ==== 
     psi = 0.494*[#   2]+0.494*[#   6]
    |psi|^2 = 0.988
==== e(   6) =     8.75003 eV ==== 

    |psi|^2 = 0.001
==== e(   7) =     9.26989 eV ==== 
     psi = 0.008*[#   1]+0.008*[#   5]+0.002*[#   3]+0.002*[#   4]+0.002*[#   7]
          +0.002*[#   8]
    |psi|^2 = 0.022
==== e(   8) =    10.40313 eV ==== 
     psi = 0.001*[#   1]+0.001*[#   5]
    |psi|^2 = 0.004

 k =   0.2777777778  0.5452752542  0.0000000000
==== e(   1) =   -15.73294 eV ==== 
     psi = 0.234*[#   1]+0.234*[#   5]+0.131*[#   3]+0.131*[#   4]+0.131*[#   7]
          +0.131*[#   8]
    |psi|^2 = 0.991
==== e(   2) =   -14.45939 eV ==== 
     psi = 0.185*[#   1]+0.185*[#   5]+0.155*[#   3]+0.155*[#   4]+0.155*[#   7]
          +0.155*[#   8]
    |psi|^2 = 0.992
==== e(   3) =   -12.62711 eV ==== 
     psi = 0.230*[#   3]+0.230*[#   4]+0.230*[#   7]+0.230*[#   8]+0.033*[#   1]
          +0.033*[#   5]
    |psi|^2 = 0.985
==== e(   4) =    -3.07418 eV ==== 
     psi = 0.498*[#   2]+0.498*[#   6]
    |psi|^2 = 0.995
==== e(   5) =    -1.20352 eV ==== 
     psi = 0.494*[#   2]+0.494*[#   6]
    |psi|^2 = 0.989
==== e(   6) =     8.74145 eV ==== 

    |psi|^2 = 0.002
==== e(   7) =    10.02253 eV ==== 
     psi = 0.017*[#   1]+0.017*[#   5]+0.004*[#   3]+0.004*[#   4]+0.004*[#   7]
          +0.004*[#   8]
    |psi|^2 = 0.048
==== e(   8) =    11.24128 eV ==== 
     psi = 0.133*[#   1]+0.133*[#   5]+0.039*[#   3]+0.039*[#   4]+0.039*[#   7]
          +0.039*[#   8]
    |psi|^2 = 0.421

 k =   0.2777777778  0.5773502692  0.0000000000
==== e(   1) =   -15.43168 eV ==== 
     psi = 0.248*[#   1]+0.248*[#   5]+0.124*[#   3]+0.124*[#   4]+0.124*[#   7]
          +0.124*[#   8]
    |psi|^2 = 0.993
==== e(   2) =   -14.75175 eV ==== 
     psi = 0.170*[#   1]+0.170*[#   5]+0.162*[#   3]+0.162*[#   4]+0.162*[#   7]
          +0.162*[#   8]
    |psi|^2 = 0.989
==== e(   3) =   -12.67656 eV ==== 
     psi = 0.229*[#   3]+0.229*[#   4]+0.229*[#   7]+0.229*[#   8]+0.035*[#   1]
          +0.035*[#   5]
    |psi|^2 = 0.985
==== e(   4) =    -2.87237 eV ==== 
     psi = 0.498*[#   2]+0.498*[#   6]
    |psi|^2 = 0.996
==== e(   5) =    -1.40782 eV ==== 
     psi = 0.494*[#   2]+0.494*[#   6]
    |psi|^2 = 0.989
==== e(   6) =     8.72884 eV ==== 
     psi = 0.001*[#   2]+0.001*[#   6]
    |psi|^2 = 0.002
==== e(   7) =    10.64918 eV ==== 
     psi = 0.037*[#   1]+0.037*[#   5]+0.010*[#   3]+0.010*[#   4]+0.010*[#   7]
          +0.010*[#   8]
    |psi|^2 = 0.112
==== e(   8) =    10.84763 eV ==== 
     psi = 0.052*[#   1]+0.052*[#   5]+0.012*[#   3]+0.012*[#   4]+0.012*[#   7]
          +0.012*[#   8]
    |psi|^2 = 0.154

 k =   0.3055555556  0.5292377468  0.0000000000
==== e(   1) =   -15.73326 eV ==== 
     psi = 0.230*[#   1]+0.230*[#   5]+0.133*[#   3]+0.133*[#   4]+0.133*[#   7]
          +0.133*[#   8]
    |psi|^2 = 0.991
==== e(   2) =   -14.29826 eV ==== 
     psi = 0.205*[#   1]+0.205*[#   5]+0.146*[#   3]+0.146*[#   4]+0.146*[#   7]
          +0.146*[#   8]
    |psi|^2 = 0.994
==== e(   3) =   -12.82123 eV ==== 
     psi = 0.237*[#   3]+0.237*[#   4]+0.237*[#   7]+0.237*[#   8]+0.018*[#   1]
          +0.018*[#   5]
    |psi|^2 = 0.983
==== e(   4) =    -3.01245 eV ==== 
     psi = 0.497*[#   2]+0.497*[#   6]
    |psi|^2 = 0.995
==== e(   5) =    -1.24690 eV ==== 
     psi = 0.495*[#   2]+0.495*[#   6]
    |psi|^2 = 0.990
==== e(   6) =     8.68223 eV ==== 

    |psi|^2 = 0.001
==== e(   7) =     9.99902 eV ==== 
     psi = 0.016*[#   1]+0.016*[#   5]+0.003*[#   3]+0.003*[#   4]+0.003*[#   7]
          +0.003*[#   8]
    |psi|^2 = 0.046
==== e(   8) =    11.23584 eV ==== 
     psi = 0.004*[#   1]+0.004*[#   5]+0.001*[#   3]+0.001*[#   4]+0.001*[#   7]
          +0.001*[#   8]
    |psi|^2 = 0.013

 k =   0.3055555556  0.5613127617  0.0000000000
==== e(   1) =   -15.28876 eV ==== 
     psi = 0.233*[#   1]+0.233*[#   5]+0.131*[#   3]+0.131*[#   4]+0.131*[#   7]
          +0.131*[#   8]
    |psi|^2 = 0.993
==== e(   2) =   -14.64090 eV ==== 
     psi = 0.208*[#   1]+0.208*[#   5]+0.144*[#   3]+0.144*[#   4]+0.144*[#   7]
          +0.144*[#   8]
    |psi|^2 = 0.993
==== e(   3) =   -13.00101 eV ==== 
     psi = 0.239*[#   3]+0.239*[#   4]+0.239*[#   7]+0.239*[#   8]+0.012*[#   1]
          +0.012*[#   5]
    |psi|^2 = 0.982
==== e(   4) =    -2.59587 eV ==== 
     psi = 0.497*[#   2]+0.497*[#   6]
    |psi|^2 = 0.995
==== e(   5) =    -1.65732 eV ==== 
     psi = 0.496*[#   2]+0.496*[#   6]
    |psi|^2 = 0.991
==== e(   6) =     8.62558 eV ==== 

    |psi|^2 = 0.000
==== e(   7) =    10.68507 eV ==== 
     psi = 0.036*[#   1]+0.036*[#   5]+0.009*[#   3]+0.009*[#   4]+0.009*[#   7]
          +0.009*[#   8]
    |psi|^2 = 0.110
==== e(   8) =    11.25592 eV ==== 
     psi = 0.091*[#   1]+0.091*[#   5]+0.025*[#   3]+0.025*[#   4]+0.025*[#   7]
          +0.025*[#   8]
    |psi|^2 = 0.284

 k =   0.3333333333  0.5773502692  0.0000000000
==== e(   1) =   -14.91104 eV ==== 
     psi = 0.227*[#   1]+0.227*[#   5]+0.135*[#   3]+0.135*[#   4]+0.135*[#   7]
          +0.135*[#   8]
    |psi|^2 = 0.994
==== e(   2) =   -14.91104 eV ==== 
     psi = 0.227*[#   1]+0.227*[#   5]+0.135*[#   3]+0.135*[#   4]+0.135*[#   7]
          +0.135*[#   8]
    |psi|^2 = 0.994
==== e(   3) =   -13.14599 eV ==== 
     psi = 0.245*[#   3]+0.245*[#   4]+0.245*[#   7]+0.245*[#   8]
    |psi|^2 = 0.981
==== e(   4) =    -2.12225 eV ==== 
     psi = 0.497*[#   2]+0.497*[#   6]
    |psi|^2 = 0.993
==== e(   5) =    -2.12225 eV ==== 
     psi = 0.497*[#   2]+0.497*[#   6]
    |psi|^2 = 0.993
==== e(   6) =     8.58195 eV ==== 

    |psi|^2 = 0.000
==== e(   7) =    11.14281 eV ==== 
     psi = 0.078*[#   1]+0.078*[#   5]+0.022*[#   3]+0.022*[#   4]+0.022*[#   7]
          +0.022*[#   8]
    |psi|^2 = 0.243
==== e(   8) =    11.14281 eV ==== 
     psi = 0.078*[#   1]+0.078*[#   5]+0.022*[#   3]+0.022*[#   4]+0.022*[#   7]
          +0.022*[#   8]
    |psi|^2 = 0.243

Lowdin Charges: 

     Atom #   1: total charge =   3.9545, s =  0.8789, 
     Atom #   1: total charge =   3.9545, p =  3.0756, pz=  0.9860, px=  1.0448, py=  1.0448, 
     Atom #   2: total charge =   3.9545, s =  0.8789, 
     Atom #   2: total charge =   3.9545, p =  3.0756, pz=  0.9860, px=  1.0448, py=  1.0448, 
     Spilling Parameter:   0.0114

     PROJWFC      :      6.34s CPU     14.98s WALL


   This run was terminated on:  22:19:26  28Aug2023            

=------------------------------------------------------------------------------=
   JOB DONE.
=------------------------------------------------------------------------------=
