
     Program PWSCF v.6.7MaX starts on  4Aug2023 at 10:25:45 

     This program is part of the open-source Quantum ESPRESSO suite
     for quantum simulation of materials; please cite
         "P. Giannozzi et al., J. Phys.:Condens. Matter 21 395502 (2009);
         "P. Giannozzi et al., J. Phys.:Condens. Matter 29 465901 (2017);
          URL http://www.quantum-espresso.org", 
     in publications or presentations arising from this work. More details at
     http://www.quantum-espresso.org/quote

     Parallel version (MPI), running on     1 processors

     MPI processes distributed on     1 nodes
     Waiting for input...
     Reading input from standard input

     Current dimensions of program PWSCF are:
     Max number of different atomic species (ntypx) = 10
     Max number of k-points (npk) =  40000
     Max angular momentum in pseudopotentials (lmaxx) =  3
     file C.pbe-n-kjpaw_psl.1.0.0.UPF: wavefunction(s)  2S 2P renormalized

     Subspace diagonalization in iterative solution of the eigenvalue problem:
     a serial algorithm will be used


     G-vector sticks info
     --------------------
     sticks:   dense  smooth     PW     G-vecs:    dense   smooth      PW
     Sum         595     595    169                96043    96043   15227



     bravais-lattice index     =           12
     lattice parameter (alat)  =       4.6620  a.u.
     unit-cell volume          =     711.3700 (a.u.)^3
     number of atoms/cell      =            2
     number of atomic types    =            1
     number of electrons       =         8.00
     number of Kohn-Sham states=            4
     kinetic-energy cutoff     =     100.0000  Ry
     charge density cutoff     =     400.0000  Ry
     scf convergence threshold =      1.0E-08
     mixing beta               =       0.5000
     number of iterations used =            8  plain     mixing
     Exchange-correlation= SLA  PW   PBX  PBC
                           (   1   4   3   4   0   0   0)

     celldm(1)=   4.661954  celldm(2)=   1.000000  celldm(3)=   8.107013
     celldm(4)=  -0.500000  celldm(5)=   0.000000  celldm(6)=   0.000000

     crystal axes: (cart. coord. in units of alat)
               a(1) = (   1.000000   0.000000   0.000000 )  
               a(2) = (  -0.500000   0.866025   0.000000 )  
               a(3) = (   0.000000   0.000000   8.107013 )  

     reciprocal axes: (cart. coord. in units 2 pi/alat)
               b(1) = (  1.000000  0.577350 -0.000000 )  
               b(2) = (  0.000000  1.154701  0.000000 )  
               b(3) = (  0.000000 -0.000000  0.123350 )  


     PseudoPot. # 1 for C  read from file:
     ./Pseudo/C.pbe-n-kjpaw_psl.1.0.0.UPF
     MD5 check sum: ecdf03482cb4269f2fcfa842d572f30f
     Pseudo is Projector augmented-wave + core cor, Zval =  4.0
     Generated using &quot;atomic&quot; code by A. Dal Corso  v.6.3
     Shape of augmentation charge: PSQ
     Using radial grid of 1073 points,  4 beta functions with: 
                l(1) =   0
                l(2) =   0
                l(3) =   1
                l(4) =   1
     Q(r) pseudized with 0 coefficients 


     atomic species   valence    mass     pseudopotential
        C              4.00    12.01070     C ( 1.00)

     24 Sym. Ops., with inversion, found (18 have fractional translation)



   Cartesian axes

     site n.     atom                  positions (alat units)
         1           C   tau(   1) = (   0.0000000   0.0000000   2.0267531  )
         2           C   tau(   2) = (  -0.0000000   0.5773503   2.0267531  )

     number of k points=    24
                       cart. coord. in units 2pi/alat
        k(    1) = (   0.0000000   0.0000000   0.0000000), wk =   0.0102041
        k(    2) = (   0.0000000   0.0824786   0.0000000), wk =   0.0612245
        k(    3) = (   0.0000000   0.1649572   0.0000000), wk =   0.0612245
        k(    4) = (   0.0000000   0.2474358   0.0000000), wk =   0.0612245
        k(    5) = (   0.0000000   0.3299144   0.0000000), wk =   0.0612245
        k(    6) = (   0.0000000   0.4123930   0.0000000), wk =   0.0612245
        k(    7) = (   0.0000000   0.4948717   0.0000000), wk =   0.0612245
        k(    8) = (   0.0000000  -0.5773503   0.0000000), wk =   0.0306122
        k(    9) = (   0.0714286   0.1237179   0.0000000), wk =   0.0612245
        k(   10) = (   0.0714286   0.2061965   0.0000000), wk =   0.1224490
        k(   11) = (   0.0714286   0.2886751   0.0000000), wk =   0.1224490
        k(   12) = (   0.0714286   0.3711537   0.0000000), wk =   0.1224490
        k(   13) = (   0.0714286   0.4536324   0.0000000), wk =   0.1224490
        k(   14) = (   0.0714286   0.5361110   0.0000000), wk =   0.1224490
        k(   15) = (   0.1428571   0.2474358   0.0000000), wk =   0.0612245
        k(   16) = (   0.1428571   0.3299144   0.0000000), wk =   0.1224490
        k(   17) = (   0.1428571   0.4123930   0.0000000), wk =   0.1224490
        k(   18) = (   0.1428571   0.4948717   0.0000000), wk =   0.1224490
        k(   19) = (   0.1428571   0.5773503   0.0000000), wk =   0.0612245
        k(   20) = (   0.2142857   0.3711537   0.0000000), wk =   0.0612245
        k(   21) = (   0.2142857   0.4536324   0.0000000), wk =   0.1224490
        k(   22) = (   0.2142857   0.5361110   0.0000000), wk =   0.1224490
        k(   23) = (   0.2857143   0.4948717   0.0000000), wk =   0.0612245
        k(   24) = (   0.2857143   0.5773503   0.0000000), wk =   0.0612245

     Dense  grid:    96043 G-vectors     FFT dimensions: (  30,  30, 250)

     Estimated max dynamical RAM per process >     143.05 MB

     Check: negative core charge=   -0.000002

     Initial potential from superposition of free atoms

     starting charge    7.99992, renormalised to    8.00000

     negative rho (up, down):  1.067E-04 0.000E+00
     Starting wfcs are    8 randomized atomic wfcs
     Checking if some PAW data can be deallocated... 

     total cpu time spent up to now is        4.9 secs

     Self-consistent Calculation

     iteration #  1     ecut=   100.00 Ry     beta= 0.50
     Davidson diagonalization with overlap
     ethr =  1.00E-02,  avg # of iterations =  2.0

     negative rho (up, down):  1.122E-04 0.000E+00

     total cpu time spent up to now is       11.6 secs

     total energy              =     -36.88533401 Ry
     estimated scf accuracy    <       0.17900062 Ry

     iteration #  2     ecut=   100.00 Ry     beta= 0.50
     Davidson diagonalization with overlap
     ethr =  2.24E-03,  avg # of iterations =  1.5

     negative rho (up, down):  1.240E-04 0.000E+00

     total cpu time spent up to now is       17.4 secs

     total energy              =     -36.88298571 Ry
     estimated scf accuracy    <       0.02297017 Ry

     iteration #  3     ecut=   100.00 Ry     beta= 0.50
     Davidson diagonalization with overlap
     ethr =  2.87E-04,  avg # of iterations =  2.0

     negative rho (up, down):  1.241E-04 0.000E+00

     total cpu time spent up to now is       24.6 secs

     total energy              =     -36.88801341 Ry
     estimated scf accuracy    <       0.00094276 Ry

     iteration #  4     ecut=   100.00 Ry     beta= 0.50
     Davidson diagonalization with overlap
     ethr =  1.18E-05,  avg # of iterations =  2.0

     negative rho (up, down):  1.271E-04 0.000E+00

     total cpu time spent up to now is       31.8 secs

     total energy              =     -36.88807569 Ry
     estimated scf accuracy    <       0.00033808 Ry

     iteration #  5     ecut=   100.00 Ry     beta= 0.50
     Davidson diagonalization with overlap
     ethr =  4.23E-06,  avg # of iterations =  2.0

     negative rho (up, down):  1.265E-04 0.000E+00

     total cpu time spent up to now is       38.8 secs

     total energy              =     -36.88814428 Ry
     estimated scf accuracy    <       0.00000498 Ry

     iteration #  6     ecut=   100.00 Ry     beta= 0.50
     Davidson diagonalization with overlap
     ethr =  6.23E-08,  avg # of iterations =  4.2

     negative rho (up, down):  1.264E-04 0.000E+00

     total cpu time spent up to now is       46.5 secs

     total energy              =     -36.88814755 Ry
     estimated scf accuracy    <       0.00000018 Ry

     iteration #  7     ecut=   100.00 Ry     beta= 0.50
     Davidson diagonalization with overlap
     ethr =  2.25E-09,  avg # of iterations =  3.5

     negative rho (up, down):  1.264E-04 0.000E+00

     total cpu time spent up to now is       54.9 secs

     End of self-consistent calculation

          k = 0.0000 0.0000 0.0000 ( 12127 PWs)   bands (ev):

   -21.8727  -9.9685  -5.4086  -5.4086

          k = 0.0000 0.0825 0.0000 ( 12089 PWs)   bands (ev):

   -21.7523  -9.8246  -5.8931  -5.6616

          k = 0.0000 0.1650 0.0000 ( 12071 PWs)   bands (ev):

   -21.3922  -9.3956  -7.1613  -6.2892

          k = 0.0000 0.2474 0.0000 ( 12035 PWs)   bands (ev):

   -20.7954  -8.8669  -8.6911  -7.0488

          k = 0.0000 0.3299 0.0000 ( 12021 PWs)   bands (ev):

   -19.9676 -10.7403  -7.7586  -7.7326

          k = 0.0000 0.4124 0.0000 ( 12019 PWs)   bands (ev):

   -18.9199 -12.6148  -8.3157  -6.5717

          k = 0.0000 0.4949 0.0000 ( 11962 PWs)   bands (ev):

   -17.6824 -14.3758  -8.6665  -5.3671

          k = 0.0000-0.5774 0.0000 ( 11964 PWs)   bands (ev):

   -16.6391 -15.5978  -8.7860  -4.7129

          k = 0.0714 0.1237 0.0000 ( 12075 PWs)   bands (ev):

   -21.5121  -9.5381  -6.7041  -6.1681

          k = 0.0714 0.2062 0.0000 ( 12061 PWs)   bands (ev):

   -21.0337  -8.9709  -8.0837  -6.9714

          k = 0.0714 0.2887 0.0000 ( 12046 PWs)   bands (ev):

   -20.3213  -9.8082  -8.1374  -7.7730

          k = 0.0714 0.3712 0.0000 ( 12038 PWs)   bands (ev):

   -19.3832 -11.6506  -8.4387  -7.0699

          k = 0.0714 0.4536 0.0000 ( 11992 PWs)   bands (ev):

   -18.2365 -13.4576  -8.9070  -5.8534

          k = 0.0714 0.5361 0.0000 ( 11958 PWs)   bands (ev):

   -16.9593 -15.0801  -9.1475  -4.7938

          k = 0.1429 0.2474 0.0000 ( 12067 PWs)   bands (ev):

   -20.4397  -9.2578  -8.2735  -8.0437

          k = 0.1429 0.3299 0.0000 ( 12035 PWs)   bands (ev):

   -19.6169 -10.7516  -9.0031  -7.3242

          k = 0.1429 0.4124 0.0000 ( 12005 PWs)   bands (ev):

   -18.5775 -12.4437  -9.6657  -6.1709

          k = 0.1429 0.4949 0.0000 ( 11976 PWs)   bands (ev):

   -17.3541 -14.1178 -10.0550  -4.9572

          k = 0.1429 0.5774 0.0000 ( 11968 PWs)   bands (ev):

   -16.3296 -15.3008 -10.1841  -4.2736

          k = 0.2143 0.3712 0.0000 ( 12031 PWs)   bands (ev):

   -18.6923 -11.7856 -10.2703  -6.2805

          k = 0.2143 0.4536 0.0000 ( 11999 PWs)   bands (ev):

   -17.5686 -13.1242 -11.0833  -5.0738

          k = 0.2143 0.5361 0.0000 ( 11952 PWs)   bands (ev):

   -16.3282 -14.5612 -11.4289  -3.9532

          k = 0.2857 0.4949 0.0000 ( 11959 PWs)   bands (ev):

   -16.3987 -13.8760 -12.2318  -3.8578

          k = 0.2857 0.5774 0.0000 ( 11934 PWs)   bands (ev):

   -15.4042 -14.7318 -12.6254  -2.9711

     highest occupied level (ev):    -2.9711

!    total energy              =     -36.88814767 Ry

     total all-electron energy =      -152.416342 Ry
     estimated scf accuracy    <          1.5E-09 Ry

     The total energy is the sum of the following terms:
     one-electron contribution =    -223.56931179 Ry
     hartree contribution      =     113.21755168 Ry
     xc contribution           =      -9.27226006 Ry
     ewald contribution        =      95.06982811 Ry
     one-center paw contrib.   =     -12.33395561 Ry

     convergence has been achieved in   7 iterations

     Writing output data file ./tmp/graphene4.save/

     init_run     :      4.67s CPU      4.76s WALL (       1 calls)
     electrons    :     49.24s CPU     50.00s WALL (       1 calls)

     Called by init_run:
     wfcinit      :      3.55s CPU      3.57s WALL (       1 calls)
     potinit      :      0.42s CPU      0.44s WALL (       1 calls)
     hinit0       :      0.51s CPU      0.51s WALL (       1 calls)

     Called by electrons:
     c_bands      :     38.86s CPU     39.03s WALL (       7 calls)
     sum_band     :      7.38s CPU      7.70s WALL (       7 calls)
     v_of_rho     :      1.58s CPU      1.61s WALL (       8 calls)
     newd         :      0.72s CPU      0.95s WALL (       8 calls)
     PAW_pot      :      0.87s CPU      0.87s WALL (       8 calls)
     mix_rho      :      0.19s CPU      0.20s WALL (       7 calls)

     Called by c_bands:
     init_us_2    :      1.17s CPU      1.18s WALL (     360 calls)
     cegterg      :     37.01s CPU     37.18s WALL (     168 calls)

     Called by *egterg:
     cdiaghg      :      0.04s CPU      0.04s WALL (     581 calls)
     h_psi        :     35.47s CPU     35.62s WALL (     605 calls)
     s_psi        :      1.50s CPU      1.50s WALL (     605 calls)
     g_psi        :      0.19s CPU      0.19s WALL (     413 calls)

     Called by h_psi:
     h_psi:calbec :      1.43s CPU      1.44s WALL (     605 calls)
     vloc_psi     :     32.45s CPU     32.58s WALL (     605 calls)
     add_vuspsi   :      1.48s CPU      1.49s WALL (     605 calls)

     General routines
     calbec       :      1.86s CPU      1.88s WALL (     773 calls)
     fft          :      0.91s CPU      0.91s WALL (      88 calls)
     ffts         :      0.08s CPU      0.08s WALL (       7 calls)
     fftw         :     33.25s CPU     33.41s WALL (    5084 calls)

     Parallel routines

     PWSCF        :     54.08s CPU     55.03s WALL


   This run was terminated on:  10:26:40   4Aug2023            

=------------------------------------------------------------------------------=
   JOB DONE.
=------------------------------------------------------------------------------=
