
     Program PWSCF v.6.7MaX starts on  4Aug2023 at 10:23:50 

     This program is part of the open-source Quantum ESPRESSO suite
     for quantum simulation of materials; please cite
         "P. Giannozzi et al., J. Phys.:Condens. Matter 21 395502 (2009);
         "P. Giannozzi et al., J. Phys.:Condens. Matter 29 465901 (2017);
          URL http://www.quantum-espresso.org", 
     in publications or presentations arising from this work. More details at
     http://www.quantum-espresso.org/quote

     Parallel version (MPI), running on     1 processors

     MPI processes distributed on     1 nodes
     Waiting for input...
     Reading input from standard input

     Current dimensions of program PWSCF are:
     Max number of different atomic species (ntypx) = 10
     Max number of k-points (npk) =  40000
     Max angular momentum in pseudopotentials (lmaxx) =  3
     file C.pbe-n-kjpaw_psl.1.0.0.UPF: wavefunction(s)  2S 2P renormalized

     Subspace diagonalization in iterative solution of the eigenvalue problem:
     a serial algorithm will be used


     G-vector sticks info
     --------------------
     sticks:   dense  smooth     PW     G-vecs:    dense   smooth      PW
     Sum         595     595    169                96043    96043   15131



     bravais-lattice index     =           12
     lattice parameter (alat)  =       4.6620  a.u.
     unit-cell volume          =     711.3700 (a.u.)^3
     number of atoms/cell      =            2
     number of atomic types    =            1
     number of electrons       =         8.00
     number of Kohn-Sham states=            4
     kinetic-energy cutoff     =     100.0000  Ry
     charge density cutoff     =     400.0000  Ry
     scf convergence threshold =      1.0E-08
     mixing beta               =       0.5000
     number of iterations used =            8  plain     mixing
     Exchange-correlation= SLA  PW   PBX  PBC
                           (   1   4   3   4   0   0   0)

     celldm(1)=   4.661954  celldm(2)=   1.000000  celldm(3)=   8.107013
     celldm(4)=  -0.500000  celldm(5)=   0.000000  celldm(6)=   0.000000

     crystal axes: (cart. coord. in units of alat)
               a(1) = (   1.000000   0.000000   0.000000 )  
               a(2) = (  -0.500000   0.866025   0.000000 )  
               a(3) = (   0.000000   0.000000   8.107013 )  

     reciprocal axes: (cart. coord. in units 2 pi/alat)
               b(1) = (  1.000000  0.577350 -0.000000 )  
               b(2) = (  0.000000  1.154701  0.000000 )  
               b(3) = (  0.000000 -0.000000  0.123350 )  


     PseudoPot. # 1 for C  read from file:
     ./Pseudo/C.pbe-n-kjpaw_psl.1.0.0.UPF
     MD5 check sum: ecdf03482cb4269f2fcfa842d572f30f
     Pseudo is Projector augmented-wave + core cor, Zval =  4.0
     Generated using &quot;atomic&quot; code by A. Dal Corso  v.6.3
     Shape of augmentation charge: PSQ
     Using radial grid of 1073 points,  4 beta functions with: 
                l(1) =   0
                l(2) =   0
                l(3) =   1
                l(4) =   1
     Q(r) pseudized with 0 coefficients 


     atomic species   valence    mass     pseudopotential
        C              4.00    12.01070     C ( 1.00)

     24 Sym. Ops., with inversion, found (18 have fractional translation)



   Cartesian axes

     site n.     atom                  positions (alat units)
         1           C   tau(   1) = (   0.0000000   0.0000000   2.0267531  )
         2           C   tau(   2) = (  -0.0000000   0.5773503   2.0267531  )

     number of k points=    10
                       cart. coord. in units 2pi/alat
        k(    1) = (   0.0000000   0.0000000   0.0000000), wk =   0.0312500
        k(    2) = (   0.0000000   0.1443376   0.0000000), wk =   0.1875000
        k(    3) = (   0.0000000   0.2886751   0.0000000), wk =   0.1875000
        k(    4) = (   0.0000000   0.4330127   0.0000000), wk =   0.1875000
        k(    5) = (   0.0000000  -0.5773503   0.0000000), wk =   0.0937500
        k(    6) = (   0.1250000   0.2165064   0.0000000), wk =   0.1875000
        k(    7) = (   0.1250000   0.3608439   0.0000000), wk =   0.3750000
        k(    8) = (   0.1250000   0.5051815   0.0000000), wk =   0.3750000
        k(    9) = (   0.2500000   0.4330127   0.0000000), wk =   0.1875000
        k(   10) = (   0.2500000   0.5773503   0.0000000), wk =   0.1875000

     Dense  grid:    96043 G-vectors     FFT dimensions: (  30,  30, 250)

     Estimated max dynamical RAM per process >     132.79 MB

     Check: negative core charge=   -0.000002

     Initial potential from superposition of free atoms

     starting charge    7.99992, renormalised to    8.00000

     negative rho (up, down):  1.067E-04 0.000E+00
     Starting wfcs are    8 randomized atomic wfcs
     Checking if some PAW data can be deallocated... 

     total cpu time spent up to now is        3.0 secs

     Self-consistent Calculation

     iteration #  1     ecut=   100.00 Ry     beta= 0.50
     Davidson diagonalization with overlap
     ethr =  1.00E-02,  avg # of iterations =  2.0

     negative rho (up, down):  1.121E-04 0.000E+00

     total cpu time spent up to now is        6.4 secs

     total energy              =     -36.88527833 Ry
     estimated scf accuracy    <       0.17901509 Ry

     iteration #  2     ecut=   100.00 Ry     beta= 0.50
     Davidson diagonalization with overlap
     ethr =  2.24E-03,  avg # of iterations =  1.5

     negative rho (up, down):  1.240E-04 0.000E+00

     total cpu time spent up to now is        9.3 secs

     total energy              =     -36.88289735 Ry
     estimated scf accuracy    <       0.02299788 Ry

     iteration #  3     ecut=   100.00 Ry     beta= 0.50
     Davidson diagonalization with overlap
     ethr =  2.87E-04,  avg # of iterations =  2.0

     negative rho (up, down):  1.241E-04 0.000E+00

     total cpu time spent up to now is       12.7 secs

     total energy              =     -36.88793158 Ry
     estimated scf accuracy    <       0.00095116 Ry

     iteration #  4     ecut=   100.00 Ry     beta= 0.50
     Davidson diagonalization with overlap
     ethr =  1.19E-05,  avg # of iterations =  2.0

     negative rho (up, down):  1.271E-04 0.000E+00

     total cpu time spent up to now is       16.4 secs

     total energy              =     -36.88799280 Ry
     estimated scf accuracy    <       0.00035133 Ry

     iteration #  5     ecut=   100.00 Ry     beta= 0.50
     Davidson diagonalization with overlap
     ethr =  4.39E-06,  avg # of iterations =  2.0

     negative rho (up, down):  1.265E-04 0.000E+00

     total cpu time spent up to now is       20.3 secs

     total energy              =     -36.88806384 Ry
     estimated scf accuracy    <       0.00000505 Ry

     iteration #  6     ecut=   100.00 Ry     beta= 0.50
     Davidson diagonalization with overlap
     ethr =  6.31E-08,  avg # of iterations =  3.4

     negative rho (up, down):  1.264E-04 0.000E+00

     total cpu time spent up to now is       23.9 secs

     total energy              =     -36.88806681 Ry
     estimated scf accuracy    <       0.00000020 Ry

     iteration #  7     ecut=   100.00 Ry     beta= 0.50
     Davidson diagonalization with overlap
     ethr =  2.45E-09,  avg # of iterations =  3.6

     negative rho (up, down):  1.265E-04 0.000E+00

     total cpu time spent up to now is       28.1 secs

     End of self-consistent calculation

          k = 0.0000 0.0000 0.0000 ( 12127 PWs)   bands (ev):

   -21.8714  -9.9674  -5.4071  -5.4071

          k = 0.0000 0.1443 0.0000 ( 12063 PWs)   bands (ev):

   -21.5034  -9.5281  -6.7887  -6.1094

          k = 0.0000 0.2887 0.0000 ( 12035 PWs)   bands (ev):

   -20.4086  -9.7936  -8.2403  -7.4165

          k = 0.0000 0.4330 0.0000 ( 11991 PWs)   bands (ev):

   -18.6248 -13.0688  -8.4227  -6.2622

          k = 0.0000-0.5774 0.0000 ( 11964 PWs)   bands (ev):

   -16.6378 -15.5965  -8.7846  -4.7117

          k = 0.1250 0.2165 0.0000 ( 12079 PWs)   bands (ev):

   -20.7720  -8.6629  -8.5915  -7.5115

          k = 0.1250 0.3608 0.0000 ( 12017 PWs)   bands (ev):

   -19.3317 -11.3784  -9.0281  -7.0043

          k = 0.1250 0.5052 0.0000 ( 11979 PWs)   bands (ev):

   -17.2682 -14.3738  -9.7951  -4.9152

          k = 0.2500 0.4330 0.0000 ( 11995 PWs)   bands (ev):

   -17.5946 -12.8951 -11.3172  -5.0888

          k = 0.2500 0.5774 0.0000 ( 11964 PWs)   bands (ev):

   -15.6916 -14.8127 -12.1003  -3.3743

     highest occupied level (ev):    -3.3743

!    total energy              =     -36.88806693 Ry

     total all-electron energy =      -152.416261 Ry
     estimated scf accuracy    <          2.5E-09 Ry

     The total energy is the sum of the following terms:
     one-electron contribution =    -223.57004818 Ry
     hartree contribution      =     113.21851215 Ry
     xc contribution           =      -9.27240929 Ry
     ewald contribution        =      95.06982811 Ry
     one-center paw contrib.   =     -12.33394973 Ry

     convergence has been achieved in   7 iterations

     Writing output data file ./tmp/graphene4.save/

     init_run     :      2.74s CPU      2.84s WALL (       1 calls)
     electrons    :     24.52s CPU     25.13s WALL (       1 calls)

     Called by init_run:
     wfcinit      :      1.60s CPU      1.61s WALL (       1 calls)
     potinit      :      0.42s CPU      0.45s WALL (       1 calls)
     hinit0       :      0.54s CPU      0.55s WALL (       1 calls)

     Called by electrons:
     c_bands      :     17.37s CPU     17.45s WALL (       7 calls)
     sum_band     :      3.93s CPU      4.19s WALL (       7 calls)
     v_of_rho     :      1.70s CPU      1.74s WALL (       8 calls)
     newd         :      0.74s CPU      1.00s WALL (       8 calls)
     PAW_pot      :      0.94s CPU      0.94s WALL (       8 calls)
     mix_rho      :      0.19s CPU      0.21s WALL (       7 calls)

     Called by c_bands:
     init_us_2    :      0.50s CPU      0.50s WALL (     150 calls)
     cegterg      :     16.57s CPU     16.65s WALL (      70 calls)

     Called by *egterg:
     cdiaghg      :      0.02s CPU      0.02s WALL (     235 calls)
     h_psi        :     15.94s CPU     16.01s WALL (     245 calls)
     s_psi        :      0.66s CPU      0.66s WALL (     245 calls)
     g_psi        :      0.08s CPU      0.08s WALL (     165 calls)

     Called by h_psi:
     h_psi:calbec :      0.65s CPU      0.65s WALL (     245 calls)
     vloc_psi     :     14.58s CPU     14.65s WALL (     245 calls)
     add_vuspsi   :      0.66s CPU      0.67s WALL (     245 calls)

     General routines
     calbec       :      0.83s CPU      0.84s WALL (     315 calls)
     fft          :      1.00s CPU      1.00s WALL (      88 calls)
     ffts         :      0.08s CPU      0.08s WALL (       7 calls)
     fftw         :     14.81s CPU     14.88s WALL (    2098 calls)

     Parallel routines

     PWSCF        :     27.41s CPU     28.20s WALL


   This run was terminated on:  10:24:18   4Aug2023            

=------------------------------------------------------------------------------=
   JOB DONE.
=------------------------------------------------------------------------------=
