
     Program PWSCF v.6.7MaX starts on  4Aug2023 at 10:24:19 

     This program is part of the open-source Quantum ESPRESSO suite
     for quantum simulation of materials; please cite
         "P. Giannozzi et al., J. Phys.:Condens. Matter 21 395502 (2009);
         "P. Giannozzi et al., J. Phys.:Condens. Matter 29 465901 (2017);
          URL http://www.quantum-espresso.org", 
     in publications or presentations arising from this work. More details at
     http://www.quantum-espresso.org/quote

     Parallel version (MPI), running on     1 processors

     MPI processes distributed on     1 nodes
     Waiting for input...
     Reading input from standard input

     Current dimensions of program PWSCF are:
     Max number of different atomic species (ntypx) = 10
     Max number of k-points (npk) =  40000
     Max angular momentum in pseudopotentials (lmaxx) =  3
     file C.pbe-n-kjpaw_psl.1.0.0.UPF: wavefunction(s)  2S 2P renormalized

     Subspace diagonalization in iterative solution of the eigenvalue problem:
     a serial algorithm will be used


     G-vector sticks info
     --------------------
     sticks:   dense  smooth     PW     G-vecs:    dense   smooth      PW
     Sum         595     595    169                96043    96043   15047



     bravais-lattice index     =           12
     lattice parameter (alat)  =       4.6620  a.u.
     unit-cell volume          =     711.3700 (a.u.)^3
     number of atoms/cell      =            2
     number of atomic types    =            1
     number of electrons       =         8.00
     number of Kohn-Sham states=            4
     kinetic-energy cutoff     =     100.0000  Ry
     charge density cutoff     =     400.0000  Ry
     scf convergence threshold =      1.0E-08
     mixing beta               =       0.5000
     number of iterations used =            8  plain     mixing
     Exchange-correlation= SLA  PW   PBX  PBC
                           (   1   4   3   4   0   0   0)

     celldm(1)=   4.661954  celldm(2)=   1.000000  celldm(3)=   8.107013
     celldm(4)=  -0.500000  celldm(5)=   0.000000  celldm(6)=   0.000000

     crystal axes: (cart. coord. in units of alat)
               a(1) = (   1.000000   0.000000   0.000000 )  
               a(2) = (  -0.500000   0.866025   0.000000 )  
               a(3) = (   0.000000   0.000000   8.107013 )  

     reciprocal axes: (cart. coord. in units 2 pi/alat)
               b(1) = (  1.000000  0.577350 -0.000000 )  
               b(2) = (  0.000000  1.154701  0.000000 )  
               b(3) = (  0.000000 -0.000000  0.123350 )  


     PseudoPot. # 1 for C  read from file:
     ./Pseudo/C.pbe-n-kjpaw_psl.1.0.0.UPF
     MD5 check sum: ecdf03482cb4269f2fcfa842d572f30f
     Pseudo is Projector augmented-wave + core cor, Zval =  4.0
     Generated using &quot;atomic&quot; code by A. Dal Corso  v.6.3
     Shape of augmentation charge: PSQ
     Using radial grid of 1073 points,  4 beta functions with: 
                l(1) =   0
                l(2) =   0
                l(3) =   1
                l(4) =   1
     Q(r) pseudized with 0 coefficients 


     atomic species   valence    mass     pseudopotential
        C              4.00    12.01070     C ( 1.00)

     24 Sym. Ops., with inversion, found (18 have fractional translation)



   Cartesian axes

     site n.     atom                  positions (alat units)
         1           C   tau(   1) = (   0.0000000   0.0000000   2.0267531  )
         2           C   tau(   2) = (  -0.0000000   0.5773503   2.0267531  )

     number of k points=    14
                       cart. coord. in units 2pi/alat
        k(    1) = (   0.0000000   0.0000000   0.0000000), wk =   0.0200000
        k(    2) = (   0.0000000   0.1154701   0.0000000), wk =   0.1200000
        k(    3) = (   0.0000000   0.2309401   0.0000000), wk =   0.1200000
        k(    4) = (   0.0000000   0.3464102   0.0000000), wk =   0.1200000
        k(    5) = (   0.0000000   0.4618802   0.0000000), wk =   0.1200000
        k(    6) = (   0.0000000  -0.5773503   0.0000000), wk =   0.0600000
        k(    7) = (   0.1000000   0.1732051   0.0000000), wk =   0.1200000
        k(    8) = (   0.1000000   0.2886751   0.0000000), wk =   0.2400000
        k(    9) = (   0.1000000   0.4041452   0.0000000), wk =   0.2400000
        k(   10) = (   0.1000000   0.5196152   0.0000000), wk =   0.2400000
        k(   11) = (   0.2000000   0.3464102   0.0000000), wk =   0.1200000
        k(   12) = (   0.2000000   0.4618802   0.0000000), wk =   0.2400000
        k(   13) = (   0.2000000   0.5773503   0.0000000), wk =   0.1200000
        k(   14) = (   0.3000000   0.5196152   0.0000000), wk =   0.1200000

     Dense  grid:    96043 G-vectors     FFT dimensions: (  30,  30, 250)

     Estimated max dynamical RAM per process >     135.72 MB

     Check: negative core charge=   -0.000002

     Initial potential from superposition of free atoms

     starting charge    7.99992, renormalised to    8.00000

     negative rho (up, down):  1.067E-04 0.000E+00
     Starting wfcs are    8 randomized atomic wfcs
     Checking if some PAW data can be deallocated... 

     total cpu time spent up to now is        3.7 secs

     Self-consistent Calculation

     iteration #  1     ecut=   100.00 Ry     beta= 0.50
     Davidson diagonalization with overlap
     ethr =  1.00E-02,  avg # of iterations =  2.0

     negative rho (up, down):  1.122E-04 0.000E+00

     total cpu time spent up to now is        8.1 secs

     total energy              =     -36.88561357 Ry
     estimated scf accuracy    <       0.17901915 Ry

     iteration #  2     ecut=   100.00 Ry     beta= 0.50
     Davidson diagonalization with overlap
     ethr =  2.24E-03,  avg # of iterations =  1.4

     negative rho (up, down):  1.241E-04 0.000E+00

     total cpu time spent up to now is       12.0 secs

     total energy              =     -36.88326792 Ry
     estimated scf accuracy    <       0.02295948 Ry

     iteration #  3     ecut=   100.00 Ry     beta= 0.50
     Davidson diagonalization with overlap
     ethr =  2.87E-04,  avg # of iterations =  2.0

     negative rho (up, down):  1.240E-04 0.000E+00

     total cpu time spent up to now is       16.4 secs

     total energy              =     -36.88830221 Ry
     estimated scf accuracy    <       0.00095185 Ry

     iteration #  4     ecut=   100.00 Ry     beta= 0.50
     Davidson diagonalization with overlap
     ethr =  1.19E-05,  avg # of iterations =  2.0

     negative rho (up, down):  1.270E-04 0.000E+00

     total cpu time spent up to now is       20.9 secs

     total energy              =     -36.88836582 Ry
     estimated scf accuracy    <       0.00034722 Ry

     iteration #  5     ecut=   100.00 Ry     beta= 0.50
     Davidson diagonalization with overlap
     ethr =  4.34E-06,  avg # of iterations =  2.0

     negative rho (up, down):  1.265E-04 0.000E+00

     total cpu time spent up to now is       25.2 secs

     total energy              =     -36.88843569 Ry
     estimated scf accuracy    <       0.00000516 Ry

     iteration #  6     ecut=   100.00 Ry     beta= 0.50
     Davidson diagonalization with overlap
     ethr =  6.44E-08,  avg # of iterations =  3.7

     negative rho (up, down):  1.264E-04 0.000E+00

     total cpu time spent up to now is       30.3 secs

     total energy              =     -36.88843860 Ry
     estimated scf accuracy    <       0.00000020 Ry

     iteration #  7     ecut=   100.00 Ry     beta= 0.50
     Davidson diagonalization with overlap
     ethr =  2.52E-09,  avg # of iterations =  3.7

     negative rho (up, down):  1.264E-04 0.000E+00

     total cpu time spent up to now is       35.2 secs

     End of self-consistent calculation

          k = 0.0000 0.0000 0.0000 ( 12127 PWs)   bands (ev):

   -21.8730  -9.9689  -5.4090  -5.4090

          k = 0.0000 0.1155 0.0000 ( 12079 PWs)   bands (ev):

   -21.6373  -9.6872  -6.3263  -5.8819

          k = 0.0000 0.2309 0.0000 ( 12027 PWs)   bands (ev):

   -20.9338  -8.8536  -8.5058  -6.8968

          k = 0.0000 0.3464 0.0000 ( 12027 PWs)   bands (ev):

   -19.7755 -11.1195  -7.8849  -7.5143

          k = 0.0000 0.4619 0.0000 ( 12009 PWs)   bands (ev):

   -18.1962 -13.6932  -8.5534  -5.8334

          k = 0.0000-0.5774 0.0000 ( 11964 PWs)   bands (ev):

   -16.6395 -15.5982  -8.7864  -4.7132

          k = 0.1000 0.1732 0.0000 ( 12077 PWs)   bands (ev):

   -21.1677  -9.1292  -7.6760  -6.8279

          k = 0.1000 0.2887 0.0000 ( 12054 PWs)   bands (ev):

   -20.2368  -9.8360  -8.0711  -8.0384

          k = 0.1000 0.4041 0.0000 ( 12009 PWs)   bands (ev):

   -18.8658 -12.3439  -8.9881  -6.4963

          k = 0.1000 0.5196 0.0000 ( 11963 PWs)   bands (ev):

   -17.1336 -14.7205  -9.4647  -4.8576

          k = 0.2000 0.3464 0.0000 ( 12007 PWs)   bands (ev):

   -19.0926 -11.3086  -9.8295  -6.7279

          k = 0.2000 0.4619 0.0000 ( 11996 PWs)   bands (ev):

   -17.5428 -13.2994 -10.9022  -5.0590

          k = 0.2000 0.5774 0.0000 ( 11976 PWs)   bands (ev):

   -16.0334 -15.0440 -11.2071  -3.8545

          k = 0.3000 0.5196 0.0000 ( 11964 PWs)   bands (ev):

   -15.9158 -14.2290 -12.5338  -3.3777

     highest occupied level (ev):    -3.3777

!    total energy              =     -36.88843876 Ry

     total all-electron energy =      -152.416633 Ry
     estimated scf accuracy    <          1.0E-09 Ry

     The total energy is the sum of the following terms:
     one-electron contribution =    -223.56930819 Ry
     hartree contribution      =     113.21720363 Ry
     xc contribution           =      -9.27220762 Ry
     ewald contribution        =      95.06982811 Ry
     one-center paw contrib.   =     -12.33395468 Ry

     convergence has been achieved in   7 iterations

     Writing output data file ./tmp/graphene4.save/

     init_run     :      3.54s CPU      3.65s WALL (       1 calls)
     electrons    :     30.90s CPU     31.46s WALL (       1 calls)

     Called by init_run:
     wfcinit      :      2.37s CPU      2.39s WALL (       1 calls)
     potinit      :      0.43s CPU      0.46s WALL (       1 calls)
     hinit0       :      0.55s CPU      0.57s WALL (       1 calls)

     Called by electrons:
     c_bands      :     23.09s CPU     23.14s WALL (       7 calls)
     sum_band     :      4.78s CPU      5.02s WALL (       7 calls)
     v_of_rho     :      1.59s CPU      1.64s WALL (       8 calls)
     newd         :      0.73s CPU      0.99s WALL (       8 calls)
     PAW_pot      :      0.92s CPU      0.92s WALL (       8 calls)
     mix_rho      :      0.18s CPU      0.20s WALL (       7 calls)

     Called by c_bands:
     init_us_2    :      0.70s CPU      0.70s WALL (     210 calls)
     cegterg      :     21.99s CPU     22.04s WALL (      98 calls)

     Called by *egterg:
     cdiaghg      :      0.02s CPU      0.02s WALL (     334 calls)
     h_psi        :     21.32s CPU     21.37s WALL (     348 calls)
     s_psi        :      0.88s CPU      0.88s WALL (     348 calls)
     g_psi        :      0.11s CPU      0.11s WALL (     236 calls)

     Called by h_psi:
     h_psi:calbec :      0.85s CPU      0.85s WALL (     348 calls)
     vloc_psi     :     19.52s CPU     19.57s WALL (     348 calls)
     add_vuspsi   :      0.89s CPU      0.89s WALL (     348 calls)

     General routines
     calbec       :      1.10s CPU      1.10s WALL (     446 calls)
     fft          :      0.92s CPU      0.93s WALL (      88 calls)
     ffts         :      0.08s CPU      0.08s WALL (       7 calls)
     fftw         :     19.97s CPU     20.03s WALL (    2962 calls)

     Parallel routines

     PWSCF        :     34.55s CPU     35.26s WALL


   This run was terminated on:  10:24:54   4Aug2023            

=------------------------------------------------------------------------------=
   JOB DONE.
=------------------------------------------------------------------------------=
