
     Program PWSCF v.6.7MaX starts on  4Aug2023 at 10:30:59 

     This program is part of the open-source Quantum ESPRESSO suite
     for quantum simulation of materials; please cite
         "P. Giannozzi et al., J. Phys.:Condens. Matter 21 395502 (2009);
         "P. Giannozzi et al., J. Phys.:Condens. Matter 29 465901 (2017);
          URL http://www.quantum-espresso.org", 
     in publications or presentations arising from this work. More details at
     http://www.quantum-espresso.org/quote

     Parallel version (MPI), running on     1 processors

     MPI processes distributed on     1 nodes
     Waiting for input...
     Reading input from standard input

     Current dimensions of program PWSCF are:
     Max number of different atomic species (ntypx) = 10
     Max number of k-points (npk) =  40000
     Max angular momentum in pseudopotentials (lmaxx) =  3
     file C.pbe-n-kjpaw_psl.1.0.0.UPF: wavefunction(s)  2S 2P renormalized

     Subspace diagonalization in iterative solution of the eigenvalue problem:
     a serial algorithm will be used


     G-vector sticks info
     --------------------
     sticks:   dense  smooth     PW     G-vecs:    dense   smooth      PW
     Sum         595     595    169                96043    96043   15203



     bravais-lattice index     =           12
     lattice parameter (alat)  =       4.6620  a.u.
     unit-cell volume          =     711.3700 (a.u.)^3
     number of atoms/cell      =            2
     number of atomic types    =            1
     number of electrons       =         8.00
     number of Kohn-Sham states=            4
     kinetic-energy cutoff     =     100.0000  Ry
     charge density cutoff     =     400.0000  Ry
     scf convergence threshold =      1.0E-08
     mixing beta               =       0.5000
     number of iterations used =            8  plain     mixing
     Exchange-correlation= SLA  PW   PBX  PBC
                           (   1   4   3   4   0   0   0)

     celldm(1)=   4.661954  celldm(2)=   1.000000  celldm(3)=   8.107013
     celldm(4)=  -0.500000  celldm(5)=   0.000000  celldm(6)=   0.000000

     crystal axes: (cart. coord. in units of alat)
               a(1) = (   1.000000   0.000000   0.000000 )  
               a(2) = (  -0.500000   0.866025   0.000000 )  
               a(3) = (   0.000000   0.000000   8.107013 )  

     reciprocal axes: (cart. coord. in units 2 pi/alat)
               b(1) = (  1.000000  0.577350 -0.000000 )  
               b(2) = (  0.000000  1.154701  0.000000 )  
               b(3) = (  0.000000 -0.000000  0.123350 )  


     PseudoPot. # 1 for C  read from file:
     ./Pseudo/C.pbe-n-kjpaw_psl.1.0.0.UPF
     MD5 check sum: ecdf03482cb4269f2fcfa842d572f30f
     Pseudo is Projector augmented-wave + core cor, Zval =  4.0
     Generated using &quot;atomic&quot; code by A. Dal Corso  v.6.3
     Shape of augmentation charge: PSQ
     Using radial grid of 1073 points,  4 beta functions with: 
                l(1) =   0
                l(2) =   0
                l(3) =   1
                l(4) =   1
     Q(r) pseudized with 0 coefficients 


     atomic species   valence    mass     pseudopotential
        C              4.00    12.01070     C ( 1.00)

     24 Sym. Ops., with inversion, found (18 have fractional translation)



   Cartesian axes

     site n.     atom                  positions (alat units)
         1           C   tau(   1) = (   0.0000000   0.0000000   2.0267531  )
         2           C   tau(   2) = (  -0.0000000   0.5773503   2.0267531  )

     number of k points=    52
                       cart. coord. in units 2pi/alat
        k(    1) = (   0.0000000   0.0000000   0.0000000), wk =   0.0041322
        k(    2) = (   0.0000000   0.0524864   0.0000000), wk =   0.0247934
        k(    3) = (   0.0000000   0.1049728   0.0000000), wk =   0.0247934
        k(    4) = (   0.0000000   0.1574592   0.0000000), wk =   0.0247934
        k(    5) = (   0.0000000   0.2099456   0.0000000), wk =   0.0247934
        k(    6) = (   0.0000000   0.2624319   0.0000000), wk =   0.0247934
        k(    7) = (   0.0000000   0.3149183   0.0000000), wk =   0.0247934
        k(    8) = (   0.0000000   0.3674047   0.0000000), wk =   0.0247934
        k(    9) = (   0.0000000   0.4198911   0.0000000), wk =   0.0247934
        k(   10) = (   0.0000000   0.4723775   0.0000000), wk =   0.0247934
        k(   11) = (   0.0000000   0.5248639   0.0000000), wk =   0.0247934
        k(   12) = (   0.0000000  -0.5773503   0.0000000), wk =   0.0123967
        k(   13) = (   0.0454545   0.0787296   0.0000000), wk =   0.0247934
        k(   14) = (   0.0454545   0.1312160   0.0000000), wk =   0.0495868
        k(   15) = (   0.0454545   0.1837024   0.0000000), wk =   0.0495868
        k(   16) = (   0.0454545   0.2361887   0.0000000), wk =   0.0495868
        k(   17) = (   0.0454545   0.2886751   0.0000000), wk =   0.0495868
        k(   18) = (   0.0454545   0.3411615   0.0000000), wk =   0.0495868
        k(   19) = (   0.0454545   0.3936479   0.0000000), wk =   0.0495868
        k(   20) = (   0.0454545   0.4461343   0.0000000), wk =   0.0495868
        k(   21) = (   0.0454545   0.4986207   0.0000000), wk =   0.0495868
        k(   22) = (   0.0454545   0.5511071   0.0000000), wk =   0.0495868
        k(   23) = (   0.0909091   0.1574592   0.0000000), wk =   0.0247934
        k(   24) = (   0.0909091   0.2099456   0.0000000), wk =   0.0495868
        k(   25) = (   0.0909091   0.2624319   0.0000000), wk =   0.0495868
        k(   26) = (   0.0909091   0.3149183   0.0000000), wk =   0.0495868
        k(   27) = (   0.0909091   0.3674047   0.0000000), wk =   0.0495868
        k(   28) = (   0.0909091   0.4198911   0.0000000), wk =   0.0495868
        k(   29) = (   0.0909091   0.4723775   0.0000000), wk =   0.0495868
        k(   30) = (   0.0909091   0.5248639   0.0000000), wk =   0.0495868
        k(   31) = (   0.0909091   0.5773503   0.0000000), wk =   0.0247934
        k(   32) = (   0.1363636   0.2361887   0.0000000), wk =   0.0247934
        k(   33) = (   0.1363636   0.2886751   0.0000000), wk =   0.0495868
        k(   34) = (   0.1363636   0.3411615   0.0000000), wk =   0.0495868
        k(   35) = (   0.1363636   0.3936479   0.0000000), wk =   0.0495868
        k(   36) = (   0.1363636   0.4461343   0.0000000), wk =   0.0495868
        k(   37) = (   0.1363636   0.4986207   0.0000000), wk =   0.0495868
        k(   38) = (   0.1363636   0.5511071   0.0000000), wk =   0.0495868
        k(   39) = (   0.1818182   0.3149183   0.0000000), wk =   0.0247934
        k(   40) = (   0.1818182   0.3674047   0.0000000), wk =   0.0495868
        k(   41) = (   0.1818182   0.4198911   0.0000000), wk =   0.0495868
        k(   42) = (   0.1818182   0.4723775   0.0000000), wk =   0.0495868
        k(   43) = (   0.1818182   0.5248639   0.0000000), wk =   0.0495868
        k(   44) = (   0.1818182   0.5773503   0.0000000), wk =   0.0247934
        k(   45) = (   0.2272727   0.3936479   0.0000000), wk =   0.0247934
        k(   46) = (   0.2272727   0.4461343   0.0000000), wk =   0.0495868
        k(   47) = (   0.2272727   0.4986207   0.0000000), wk =   0.0495868
        k(   48) = (   0.2272727   0.5511071   0.0000000), wk =   0.0495868
        k(   49) = (   0.2727273   0.4723775   0.0000000), wk =   0.0247934
        k(   50) = (   0.2727273   0.5248639   0.0000000), wk =   0.0495868
        k(   51) = (   0.2727273   0.5773503   0.0000000), wk =   0.0247934
        k(   52) = (   0.3181818   0.5511071   0.0000000), wk =   0.0247934

     Dense  grid:    96043 G-vectors     FFT dimensions: (  30,  30, 250)

     Estimated max dynamical RAM per process >     163.58 MB

     Check: negative core charge=   -0.000002

     Initial potential from superposition of free atoms

     starting charge    7.99992, renormalised to    8.00000

     negative rho (up, down):  1.067E-04 0.000E+00
     Starting wfcs are    8 randomized atomic wfcs
     Checking if some PAW data can be deallocated... 

     total cpu time spent up to now is        9.3 secs

     Self-consistent Calculation

     iteration #  1     ecut=   100.00 Ry     beta= 0.50
     Davidson diagonalization with overlap
     ethr =  1.00E-02,  avg # of iterations =  2.0

     negative rho (up, down):  1.121E-04 0.000E+00

     total cpu time spent up to now is       23.2 secs

     total energy              =     -36.88536404 Ry
     estimated scf accuracy    <       0.17890319 Ry

     iteration #  2     ecut=   100.00 Ry     beta= 0.50
     Davidson diagonalization with overlap
     ethr =  2.24E-03,  avg # of iterations =  1.5

     negative rho (up, down):  1.240E-04 0.000E+00

     total cpu time spent up to now is       33.7 secs

     total energy              =     -36.88295900 Ry
     estimated scf accuracy    <       0.02300475 Ry

     iteration #  3     ecut=   100.00 Ry     beta= 0.50
     Davidson diagonalization with overlap
     ethr =  2.88E-04,  avg # of iterations =  2.0

     negative rho (up, down):  1.240E-04 0.000E+00

     total cpu time spent up to now is       48.6 secs

     total energy              =     -36.88801004 Ry
     estimated scf accuracy    <       0.00095338 Ry

     iteration #  4     ecut=   100.00 Ry     beta= 0.50
     Davidson diagonalization with overlap
     ethr =  1.19E-05,  avg # of iterations =  2.0

     negative rho (up, down):  1.271E-04 0.000E+00

     total cpu time spent up to now is       66.4 secs

     total energy              =     -36.88807205 Ry
     estimated scf accuracy    <       0.00034878 Ry

     iteration #  5     ecut=   100.00 Ry     beta= 0.50
     Davidson diagonalization with overlap
     ethr =  4.36E-06,  avg # of iterations =  2.0

     negative rho (up, down):  1.265E-04 0.000E+00

     total cpu time spent up to now is       83.4 secs

     total energy              =     -36.88814269 Ry
     estimated scf accuracy    <       0.00000508 Ry

     iteration #  6     ecut=   100.00 Ry     beta= 0.50
     Davidson diagonalization with overlap
     ethr =  6.35E-08,  avg # of iterations =  4.2

     negative rho (up, down):  1.264E-04 0.000E+00

     total cpu time spent up to now is      101.2 secs

     total energy              =     -36.88814609 Ry
     estimated scf accuracy    <       0.00000019 Ry

     iteration #  7     ecut=   100.00 Ry     beta= 0.50
     Davidson diagonalization with overlap
     ethr =  2.39E-09,  avg # of iterations =  3.4

     negative rho (up, down):  1.264E-04 0.000E+00

     total cpu time spent up to now is      119.0 secs

     End of self-consistent calculation

          k = 0.0000 0.0000 0.0000 ( 12127 PWs)   bands (ev):

   -21.8728  -9.9686  -5.4087  -5.4087

          k = 0.0000 0.0525 0.0000 ( 12081 PWs)   bands (ev):

   -21.8240  -9.9103  -5.6094  -5.5143

          k = 0.0000 0.1050 0.0000 ( 12085 PWs)   bands (ev):

   -21.6779  -9.7357  -6.1759  -5.8059

          k = 0.0000 0.1575 0.0000 ( 12065 PWs)   bands (ev):

   -21.4349  -9.4463  -7.0230  -6.2233

          k = 0.0000 0.2099 0.0000 ( 12047 PWs)   bands (ev):

   -21.0958  -9.0445  -8.0575  -6.7009

          k = 0.0000 0.2624 0.0000 ( 12041 PWs)   bands (ev):

   -20.6619  -9.2011  -8.5348  -7.1855

          k = 0.0000 0.3149 0.0000 ( 12037 PWs)   bands (ev):

   -20.1350 -10.3958  -7.9241  -7.6388

          k = 0.0000 0.3674 0.0000 ( 12025 PWs)   bands (ev):

   -19.5177 -11.5996  -8.0349  -7.2248

          k = 0.0000 0.4199 0.0000 ( 12007 PWs)   bands (ev):

   -18.8145 -12.7813  -8.3567  -6.4600

          k = 0.0000 0.4724 0.0000 ( 11991 PWs)   bands (ev):

   -18.0346 -13.9140  -8.5932  -5.6801

          k = 0.0000 0.5249 0.0000 ( 11990 PWs)   bands (ev):

   -17.2099 -14.9545  -8.7375  -5.0082

          k = 0.0000-0.5774 0.0000 ( 11964 PWs)   bands (ev):

   -16.6392 -15.5979  -8.7861  -4.7129

          k = 0.0455 0.0787 0.0000 ( 12079 PWs)   bands (ev):

   -21.7266  -9.7938  -5.9803  -5.7259

          k = 0.0455 0.1312 0.0000 ( 12077 PWs)   bands (ev):

   -21.5320  -9.5618  -6.6592  -6.1087

          k = 0.0455 0.1837 0.0000 ( 12071 PWs)   bands (ev):

   -21.2410  -9.2161  -7.5735  -6.5833

          k = 0.0455 0.2362 0.0000 ( 12056 PWs)   bands (ev):

   -20.8545  -8.7601  -8.6428  -7.0848

          k = 0.0455 0.2887 0.0000 ( 12033 PWs)   bands (ev):

   -20.3741  -9.7988  -8.1993  -7.5674

          k = 0.0455 0.3412 0.0000 ( 12036 PWs)   bands (ev):

   -19.8019 -10.9895  -8.0007  -7.5428

          k = 0.0455 0.3936 0.0000 ( 12032 PWs)   bands (ev):

   -19.1414 -12.1771  -8.3650  -6.8072

          k = 0.0455 0.4461 0.0000 ( 11999 PWs)   bands (ev):

   -18.3989 -13.3320  -8.6473  -6.0257

          k = 0.0455 0.4986 0.0000 ( 11972 PWs)   bands (ev):

   -17.5899 -14.4234  -8.8395  -5.2757

          k = 0.0455 0.5511 0.0000 ( 11969 PWs)   bands (ev):

   -16.7998 -15.3568  -8.9367  -4.7478

          k = 0.0909 0.1575 0.0000 ( 12071 PWs)   bands (ev):

   -21.2894  -9.2735  -7.3537  -6.6010

          k = 0.0909 0.2099 0.0000 ( 12059 PWs)   bands (ev):

   -20.9510  -8.8733  -8.2375  -7.1660

          k = 0.0909 0.2624 0.0000 ( 12072 PWs)   bands (ev):

   -20.5180  -9.2705  -8.3655  -7.7151

          k = 0.0909 0.3149 0.0000 ( 12042 PWs)   bands (ev):

   -19.9923 -10.3924  -8.2085  -7.7570

          k = 0.0909 0.3674 0.0000 ( 12022 PWs)   bands (ev):

   -19.3768 -11.5492  -8.6281  -7.0598

          k = 0.0909 0.4199 0.0000 ( 12012 PWs)   bands (ev):

   -18.6760 -12.7003  -8.9634  -6.2963

          k = 0.0909 0.4724 0.0000 ( 11971 PWs)   bands (ev):

   -17.8995 -13.8128  -9.2072  -5.5149

          k = 0.0909 0.5249 0.0000 ( 11963 PWs)   bands (ev):

   -17.0796 -14.8394  -9.3552  -4.8362

          k = 0.0909 0.5774 0.0000 ( 11972 PWs)   bands (ev):

   -16.5138 -15.4750  -9.4048  -4.5348

          k = 0.1364 0.2362 0.0000 ( 12077 PWs)   bands (ev):

   -20.5660  -9.0162  -8.4211  -7.8478

          k = 0.1364 0.2887 0.0000 ( 12042 PWs)   bands (ev):

   -20.0877  -9.9344  -8.4889  -7.8648

          k = 0.1364 0.3412 0.0000 ( 12029 PWs)   bands (ev):

   -19.5186 -10.9697  -9.0217  -7.2132

          k = 0.1364 0.3936 0.0000 ( 12003 PWs)   bands (ev):

   -18.8623 -12.0624  -9.4408  -6.4816

          k = 0.1364 0.4461 0.0000 ( 11996 PWs)   bands (ev):

   -18.1256 -13.1585  -9.7524  -5.7008

          k = 0.1364 0.4986 0.0000 ( 11983 PWs)   bands (ev):

   -17.3247 -14.2122  -9.9595  -4.9427

          k = 0.1364 0.5511 0.0000 ( 11965 PWs)   bands (ev):

   -16.5455 -15.1215 -10.0630  -4.3965

          k = 0.1818 0.3149 0.0000 ( 12035 PWs)   bands (ev):

   -19.5660 -10.6771  -9.2587  -7.2646

          k = 0.1818 0.3674 0.0000 ( 12023 PWs)   bands (ev):

   -18.9559 -11.5513  -9.8884  -6.5758

          k = 0.1818 0.4199 0.0000 ( 12021 PWs)   bands (ev):

   -18.2628 -12.5335 -10.3403  -5.8179

          k = 0.1818 0.4724 0.0000 ( 11988 PWs)   bands (ev):

   -17.4969 -13.5495 -10.6416  -5.0328

          k = 0.1818 0.5249 0.0000 ( 11953 PWs)   bands (ev):

   -16.6915 -14.5200 -10.8156  -4.3300

          k = 0.1818 0.5774 0.0000 ( 11978 PWs)   bands (ev):

   -16.1381 -15.1306 -10.8727  -4.0026

          k = 0.2273 0.3936 0.0000 ( 12029 PWs)   bands (ev):

   -18.3088 -12.2039 -10.6625  -5.8578

          k = 0.2273 0.4461 0.0000 ( 12001 PWs)   bands (ev):

   -17.5849 -12.9964 -11.2155  -5.0835

          k = 0.2273 0.4986 0.0000 ( 11967 PWs)   bands (ev):

   -16.8018 -13.8858 -11.5398  -4.3083

          k = 0.2273 0.5511 0.0000 ( 11961 PWs)   bands (ev):

   -16.0421 -14.7174 -11.6877  -3.7062

          k = 0.2727 0.4724 0.0000 ( 11983 PWs)   bands (ev):

   -16.8408 -13.5358 -11.9212  -4.3045

          k = 0.2727 0.5249 0.0000 ( 11955 PWs)   bands (ev):

   -16.0631 -14.2152 -12.3309  -3.5486

          k = 0.2727 0.5774 0.0000 ( 11942 PWs)   bands (ev):

   -15.5136 -14.7456 -12.4555  -3.1241

          k = 0.3182 0.5511 0.0000 ( 11942 PWs)   bands (ev):

   -15.3404 -14.6438 -12.8221  -2.7969

     highest occupied level (ev):    -2.7969

!    total energy              =     -36.88814621 Ry

     total all-electron energy =      -152.416341 Ry
     estimated scf accuracy    <          8.3E-10 Ry

     The total energy is the sum of the following terms:
     one-electron contribution =    -223.56918375 Ry
     hartree contribution      =     113.21740409 Ry
     xc contribution           =      -9.27223909 Ry
     ewald contribution        =      95.06982811 Ry
     one-center paw contrib.   =     -12.33395556 Ry

     convergence has been achieved in   7 iterations

     Writing output data file ./tmp/graphene4.save/

     init_run     :      9.07s CPU      9.18s WALL (       1 calls)
     electrons    :    108.59s CPU    109.90s WALL (       1 calls)

     Called by init_run:
     wfcinit      :      7.88s CPU      7.91s WALL (       1 calls)
     potinit      :      0.43s CPU      0.45s WALL (       1 calls)
     hinit0       :      0.52s CPU      0.53s WALL (       1 calls)

     Called by electrons:
     c_bands      :     90.10s CPU     90.64s WALL (       7 calls)
     sum_band     :     15.47s CPU     15.87s WALL (       7 calls)
     v_of_rho     :      1.58s CPU      1.62s WALL (       8 calls)
     newd         :      0.72s CPU      0.94s WALL (       8 calls)
     PAW_pot      :      0.88s CPU      0.88s WALL (       8 calls)
     mix_rho      :      0.19s CPU      0.21s WALL (       7 calls)

     Called by c_bands:
     init_us_2    :      2.64s CPU      2.66s WALL (     780 calls)
     cegterg      :     85.92s CPU     86.42s WALL (     364 calls)

     Called by *egterg:
     cdiaghg      :      0.08s CPU      0.09s WALL (    1253 calls)
     h_psi        :     82.20s CPU     82.66s WALL (    1305 calls)
     s_psi        :      3.43s CPU      3.45s WALL (    1305 calls)
     g_psi        :      0.42s CPU      0.42s WALL (     889 calls)

     Called by h_psi:
     h_psi:calbec :      3.24s CPU      3.27s WALL (    1305 calls)
     vloc_psi     :     75.35s CPU     75.76s WALL (    1305 calls)
     add_vuspsi   :      3.36s CPU      3.38s WALL (    1305 calls)

     General routines
     calbec       :      4.18s CPU      4.22s WALL (    1669 calls)
     fft          :      0.92s CPU      0.92s WALL (      88 calls)
     ffts         :      0.09s CPU      0.09s WALL (       7 calls)
     fftw         :     76.58s CPU     77.01s WALL (   11042 calls)

     Parallel routines

     PWSCF        :   1m57.85s CPU   1m59.64s WALL


   This run was terminated on:  10:32:58   4Aug2023            

=------------------------------------------------------------------------------=
   JOB DONE.
=------------------------------------------------------------------------------=
