
     Program PWSCF v.6.7MaX starts on  4Aug2023 at 10:29:15 

     This program is part of the open-source Quantum ESPRESSO suite
     for quantum simulation of materials; please cite
         "P. Giannozzi et al., J. Phys.:Condens. Matter 21 395502 (2009);
         "P. Giannozzi et al., J. Phys.:Condens. Matter 29 465901 (2017);
          URL http://www.quantum-espresso.org", 
     in publications or presentations arising from this work. More details at
     http://www.quantum-espresso.org/quote

     Parallel version (MPI), running on     1 processors

     MPI processes distributed on     1 nodes
     Waiting for input...
     Reading input from standard input

     Current dimensions of program PWSCF are:
     Max number of different atomic species (ntypx) = 10
     Max number of k-points (npk) =  40000
     Max angular momentum in pseudopotentials (lmaxx) =  3
     file C.pbe-n-kjpaw_psl.1.0.0.UPF: wavefunction(s)  2S 2P renormalized

     Subspace diagonalization in iterative solution of the eigenvalue problem:
     a serial algorithm will be used


     G-vector sticks info
     --------------------
     sticks:   dense  smooth     PW     G-vecs:    dense   smooth      PW
     Sum         595     595    169                96043    96043   15251



     bravais-lattice index     =           12
     lattice parameter (alat)  =       4.6620  a.u.
     unit-cell volume          =     711.3700 (a.u.)^3
     number of atoms/cell      =            2
     number of atomic types    =            1
     number of electrons       =         8.00
     number of Kohn-Sham states=            4
     kinetic-energy cutoff     =     100.0000  Ry
     charge density cutoff     =     400.0000  Ry
     scf convergence threshold =      1.0E-08
     mixing beta               =       0.5000
     number of iterations used =            8  plain     mixing
     Exchange-correlation= SLA  PW   PBX  PBC
                           (   1   4   3   4   0   0   0)

     celldm(1)=   4.661954  celldm(2)=   1.000000  celldm(3)=   8.107013
     celldm(4)=  -0.500000  celldm(5)=   0.000000  celldm(6)=   0.000000

     crystal axes: (cart. coord. in units of alat)
               a(1) = (   1.000000   0.000000   0.000000 )  
               a(2) = (  -0.500000   0.866025   0.000000 )  
               a(3) = (   0.000000   0.000000   8.107013 )  

     reciprocal axes: (cart. coord. in units 2 pi/alat)
               b(1) = (  1.000000  0.577350 -0.000000 )  
               b(2) = (  0.000000  1.154701  0.000000 )  
               b(3) = (  0.000000 -0.000000  0.123350 )  


     PseudoPot. # 1 for C  read from file:
     ./Pseudo/C.pbe-n-kjpaw_psl.1.0.0.UPF
     MD5 check sum: ecdf03482cb4269f2fcfa842d572f30f
     Pseudo is Projector augmented-wave + core cor, Zval =  4.0
     Generated using &quot;atomic&quot; code by A. Dal Corso  v.6.3
     Shape of augmentation charge: PSQ
     Using radial grid of 1073 points,  4 beta functions with: 
                l(1) =   0
                l(2) =   0
                l(3) =   1
                l(4) =   1
     Q(r) pseudized with 0 coefficients 


     atomic species   valence    mass     pseudopotential
        C              4.00    12.01070     C ( 1.00)

     24 Sym. Ops., with inversion, found (18 have fractional translation)



   Cartesian axes

     site n.     atom                  positions (alat units)
         1           C   tau(   1) = (   0.0000000   0.0000000   2.0267531  )
         2           C   tau(   2) = (  -0.0000000   0.5773503   2.0267531  )

     number of k points=    44
                       cart. coord. in units 2pi/alat
        k(    1) = (   0.0000000   0.0000000   0.0000000), wk =   0.0050000
        k(    2) = (   0.0000000   0.0577350   0.0000000), wk =   0.0300000
        k(    3) = (   0.0000000   0.1154701   0.0000000), wk =   0.0300000
        k(    4) = (   0.0000000   0.1732051   0.0000000), wk =   0.0300000
        k(    5) = (   0.0000000   0.2309401   0.0000000), wk =   0.0300000
        k(    6) = (   0.0000000   0.2886751   0.0000000), wk =   0.0300000
        k(    7) = (   0.0000000   0.3464102   0.0000000), wk =   0.0300000
        k(    8) = (   0.0000000   0.4041452   0.0000000), wk =   0.0300000
        k(    9) = (   0.0000000   0.4618802   0.0000000), wk =   0.0300000
        k(   10) = (   0.0000000   0.5196152   0.0000000), wk =   0.0300000
        k(   11) = (   0.0000000  -0.5773503   0.0000000), wk =   0.0150000
        k(   12) = (   0.0500000   0.0866025   0.0000000), wk =   0.0300000
        k(   13) = (   0.0500000   0.1443376   0.0000000), wk =   0.0600000
        k(   14) = (   0.0500000   0.2020726   0.0000000), wk =   0.0600000
        k(   15) = (   0.0500000   0.2598076   0.0000000), wk =   0.0600000
        k(   16) = (   0.0500000   0.3175426   0.0000000), wk =   0.0600000
        k(   17) = (   0.0500000   0.3752777   0.0000000), wk =   0.0600000
        k(   18) = (   0.0500000   0.4330127   0.0000000), wk =   0.0600000
        k(   19) = (   0.0500000   0.4907477   0.0000000), wk =   0.0600000
        k(   20) = (   0.0500000   0.5484828   0.0000000), wk =   0.0600000
        k(   21) = (   0.1000000   0.1732051   0.0000000), wk =   0.0300000
        k(   22) = (   0.1000000   0.2309401   0.0000000), wk =   0.0600000
        k(   23) = (   0.1000000   0.2886751   0.0000000), wk =   0.0600000
        k(   24) = (   0.1000000   0.3464102   0.0000000), wk =   0.0600000
        k(   25) = (   0.1000000   0.4041452   0.0000000), wk =   0.0600000
        k(   26) = (   0.1000000   0.4618802   0.0000000), wk =   0.0600000
        k(   27) = (   0.1000000   0.5196152   0.0000000), wk =   0.0600000
        k(   28) = (   0.1000000   0.5773503   0.0000000), wk =   0.0300000
        k(   29) = (   0.1500000   0.2598076   0.0000000), wk =   0.0300000
        k(   30) = (   0.1500000   0.3175426   0.0000000), wk =   0.0600000
        k(   31) = (   0.1500000   0.3752777   0.0000000), wk =   0.0600000
        k(   32) = (   0.1500000   0.4330127   0.0000000), wk =   0.0600000
        k(   33) = (   0.1500000   0.4907477   0.0000000), wk =   0.0600000
        k(   34) = (   0.1500000   0.5484828   0.0000000), wk =   0.0600000
        k(   35) = (   0.2000000   0.3464102   0.0000000), wk =   0.0300000
        k(   36) = (   0.2000000   0.4041452   0.0000000), wk =   0.0600000
        k(   37) = (   0.2000000   0.4618802   0.0000000), wk =   0.0600000
        k(   38) = (   0.2000000   0.5196152   0.0000000), wk =   0.0600000
        k(   39) = (   0.2000000   0.5773503   0.0000000), wk =   0.0300000
        k(   40) = (   0.2500000   0.4330127   0.0000000), wk =   0.0300000
        k(   41) = (   0.2500000   0.4907477   0.0000000), wk =   0.0600000
        k(   42) = (   0.2500000   0.5484828   0.0000000), wk =   0.0600000
        k(   43) = (   0.3000000   0.5196152   0.0000000), wk =   0.0300000
        k(   44) = (   0.3000000   0.5773503   0.0000000), wk =   0.0300000

     Dense  grid:    96043 G-vectors     FFT dimensions: (  30,  30, 250)

     Estimated max dynamical RAM per process >     157.72 MB

     Check: negative core charge=   -0.000002

     Initial potential from superposition of free atoms

     starting charge    7.99992, renormalised to    8.00000

     negative rho (up, down):  1.067E-04 0.000E+00
     Starting wfcs are    8 randomized atomic wfcs
     Checking if some PAW data can be deallocated... 

     total cpu time spent up to now is        7.8 secs

     Self-consistent Calculation

     iteration #  1     ecut=   100.00 Ry     beta= 0.50
     Davidson diagonalization with overlap
     ethr =  1.00E-02,  avg # of iterations =  2.0

     negative rho (up, down):  1.121E-04 0.000E+00

     total cpu time spent up to now is       20.3 secs

     total energy              =     -36.88533427 Ry
     estimated scf accuracy    <       0.17897652 Ry

     iteration #  2     ecut=   100.00 Ry     beta= 0.50
     Davidson diagonalization with overlap
     ethr =  2.24E-03,  avg # of iterations =  1.5

     negative rho (up, down):  1.240E-04 0.000E+00

     total cpu time spent up to now is       29.9 secs

     total energy              =     -36.88296813 Ry
     estimated scf accuracy    <       0.02297808 Ry

     iteration #  3     ecut=   100.00 Ry     beta= 0.50
     Davidson diagonalization with overlap
     ethr =  2.87E-04,  avg # of iterations =  2.0

     negative rho (up, down):  1.241E-04 0.000E+00

     total cpu time spent up to now is       42.0 secs

     total energy              =     -36.88799983 Ry
     estimated scf accuracy    <       0.00094863 Ry

     iteration #  4     ecut=   100.00 Ry     beta= 0.50
     Davidson diagonalization with overlap
     ethr =  1.19E-05,  avg # of iterations =  2.0

     negative rho (up, down):  1.271E-04 0.000E+00

     total cpu time spent up to now is       55.5 secs

     total energy              =     -36.88806189 Ry
     estimated scf accuracy    <       0.00034318 Ry

     iteration #  5     ecut=   100.00 Ry     beta= 0.50
     Davidson diagonalization with overlap
     ethr =  4.29E-06,  avg # of iterations =  2.0

     negative rho (up, down):  1.265E-04 0.000E+00

     total cpu time spent up to now is       67.8 secs

     total energy              =     -36.88813132 Ry
     estimated scf accuracy    <       0.00000503 Ry

     iteration #  6     ecut=   100.00 Ry     beta= 0.50
     Davidson diagonalization with overlap
     ethr =  6.29E-08,  avg # of iterations =  4.1

     negative rho (up, down):  1.264E-04 0.000E+00

     total cpu time spent up to now is       84.0 secs

     total energy              =     -36.88813466 Ry
     estimated scf accuracy    <       0.00000018 Ry

     iteration #  7     ecut=   100.00 Ry     beta= 0.50
     Davidson diagonalization with overlap
     ethr =  2.28E-09,  avg # of iterations =  3.7

     negative rho (up, down):  1.264E-04 0.000E+00

     total cpu time spent up to now is       99.8 secs

     End of self-consistent calculation

          k = 0.0000 0.0000 0.0000 ( 12127 PWs)   bands (ev):

   -21.8727  -9.9685  -5.4085  -5.4085

          k = 0.0000 0.0577 0.0000 ( 12085 PWs)   bands (ev):

   -21.8137  -9.8979  -5.6507  -5.5358

          k = 0.0000 0.1155 0.0000 ( 12079 PWs)   bands (ev):

   -21.6369  -9.6869  -6.3258  -5.8814

          k = 0.0000 0.1732 0.0000 ( 12061 PWs)   bands (ev):

   -21.3431  -9.3373  -7.3175  -6.3629

          k = 0.0000 0.2309 0.0000 ( 12027 PWs)   bands (ev):

   -20.9335  -8.8532  -8.5054  -6.8963

          k = 0.0000 0.2887 0.0000 ( 12035 PWs)   bands (ev):

   -20.4098  -9.7949  -8.2414  -7.4178

          k = 0.0000 0.3464 0.0000 ( 12027 PWs)   bands (ev):

   -19.7751 -11.1191  -7.8845  -7.5139

          k = 0.0000 0.4041 0.0000 ( 12029 PWs)   bands (ev):

   -19.0340 -12.4306  -8.2686  -6.6940

          k = 0.0000 0.4619 0.0000 ( 12009 PWs)   bands (ev):

   -18.1958 -13.6928  -8.5530  -5.8330

          k = 0.0000 0.5196 0.0000 ( 11994 PWs)   bands (ev):

   -17.2916 -14.8574  -8.7273  -5.0640

          k = 0.0000-0.5774 0.0000 ( 11964 PWs)   bands (ev):

   -16.6391 -15.5978  -8.7859  -4.7129

          k = 0.0500 0.0866 0.0000 ( 12075 PWs)   bands (ev):

   -21.6958  -9.7571  -6.0911  -5.7907

          k = 0.0500 0.1443 0.0000 ( 12069 PWs)   bands (ev):

   -21.4605  -9.4767  -6.8866  -6.2427

          k = 0.0500 0.2021 0.0000 ( 12064 PWs)   bands (ev):

   -21.1088  -9.0598  -7.9431  -6.7844

          k = 0.0500 0.2598 0.0000 ( 12047 PWs)   bands (ev):

   -20.6422  -9.1589  -8.5113  -7.3356

          k = 0.0500 0.3175 0.0000 ( 12036 PWs)   bands (ev):

   -20.0630 -10.4513  -7.8444  -7.8404

          k = 0.0500 0.3753 0.0000 ( 12034 PWs)   bands (ev):

   -19.3749 -11.7606  -8.2785  -7.0633

          k = 0.0500 0.4330 0.0000 ( 12011 PWs)   bands (ev):

   -18.5843 -13.0431  -8.6178  -6.2136

          k = 0.0500 0.4907 0.0000 ( 11977 PWs)   bands (ev):

   -17.7070 -14.2598  -8.8498  -5.3717

          k = 0.0500 0.5485 0.0000 ( 11973 PWs)   bands (ev):

   -16.8266 -15.3131  -8.9674  -4.7546

          k = 0.1000 0.1732 0.0000 ( 12077 PWs)   bands (ev):

   -21.1673  -9.1288  -7.6755  -6.8274

          k = 0.1000 0.2309 0.0000 ( 12065 PWs)   bands (ev):

   -20.7586  -8.6746  -8.6470  -7.4735

          k = 0.1000 0.2887 0.0000 ( 12054 PWs)   bands (ev):

   -20.2364  -9.8356  -8.0707  -8.0380

          k = 0.1000 0.3464 0.0000 ( 12046 PWs)   bands (ev):

   -19.6037 -11.0805  -8.5803  -7.3136

          k = 0.1000 0.4041 0.0000 ( 12009 PWs)   bands (ev):

   -18.8654 -12.3434  -8.9877  -6.4959

          k = 0.1000 0.4619 0.0000 ( 11987 PWs)   bands (ev):

   -18.0314 -13.5751  -9.2842  -5.6341

          k = 0.1000 0.5196 0.0000 ( 11963 PWs)   bands (ev):

   -17.1332 -14.7201  -9.4642  -4.8572

          k = 0.1000 0.5774 0.0000 ( 11970 PWs)   bands (ev):

   -16.4874 -15.4495  -9.5246  -4.4973

          k = 0.1500 0.2598 0.0000 ( 12053 PWs)   bands (ev):

   -20.2943  -9.5226  -8.2624  -8.1042

          k = 0.1500 0.3175 0.0000 ( 12037 PWs)   bands (ev):

   -19.7186 -10.5315  -8.9657  -7.4398

          k = 0.1500 0.3753 0.0000 ( 12010 PWs)   bands (ev):

   -19.0354 -11.6698  -9.5096  -6.6692

          k = 0.1500 0.4330 0.0000 ( 11990 PWs)   bands (ev):

   -18.2519 -12.8546  -9.9035  -5.8224

          k = 0.1500 0.4907 0.0000 ( 11978 PWs)   bands (ev):

   -17.3847 -14.0134 -10.1616  -4.9727

          k = 0.1500 0.5485 0.0000 ( 11973 PWs)   bands (ev):

   -16.5184 -15.0319 -10.2897  -4.3312

          k = 0.2000 0.3464 0.0000 ( 12007 PWs)   bands (ev):

   -19.0922 -11.3082  -9.8291  -6.7275

          k = 0.2000 0.4041 0.0000 ( 12019 PWs)   bands (ev):

   -18.3632 -12.2447 -10.4842  -5.9203

          k = 0.2000 0.4619 0.0000 ( 11996 PWs)   bands (ev):

   -17.5424 -13.2990 -10.9018  -5.0586

          k = 0.2000 0.5196 0.0000 ( 11943 PWs)   bands (ev):

   -16.6630 -14.3513 -11.1325  -4.2530

          k = 0.2000 0.5774 0.0000 ( 11976 PWs)   bands (ev):

   -16.0329 -15.0436 -11.2067  -3.8541

          k = 0.2500 0.4330 0.0000 ( 11995 PWs)   bands (ev):

   -17.5959 -12.8964 -11.3185  -5.0900

          k = 0.2500 0.4907 0.0000 ( 11970 PWs)   bands (ev):

   -16.7520 -13.7187 -11.8452  -4.2282

          k = 0.2500 0.5485 0.0000 ( 11966 PWs)   bands (ev):

   -15.9117 -14.5893 -12.0747  -3.5072

          k = 0.3000 0.5196 0.0000 ( 11964 PWs)   bands (ev):

   -15.9153 -14.2285 -12.5334  -3.3773

          k = 0.3000 0.5774 0.0000 ( 11934 PWs)   bands (ev):

   -15.2781 -14.7490 -12.7735  -2.7950

     highest occupied level (ev):    -2.7950

!    total energy              =     -36.88813478 Ry

     total all-electron energy =      -152.416329 Ry
     estimated scf accuracy    <          6.6E-10 Ry

     The total energy is the sum of the following terms:
     one-electron contribution =    -223.56919644 Ry
     hartree contribution      =     113.21743202 Ry
     xc contribution           =      -9.27224326 Ry
     ewald contribution        =      95.06982811 Ry
     one-center paw contrib.   =     -12.33395521 Ry

     convergence has been achieved in   7 iterations

     Writing output data file ./tmp/graphene4.save/

     init_run     :      7.57s CPU      7.71s WALL (       1 calls)
     electrons    :     91.11s CPU     91.97s WALL (       1 calls)

     Called by init_run:
     wfcinit      :      6.42s CPU      6.47s WALL (       1 calls)
     potinit      :      0.41s CPU      0.44s WALL (       1 calls)
     hinit0       :      0.51s CPU      0.53s WALL (       1 calls)

     Called by electrons:
     c_bands      :     74.55s CPU     74.84s WALL (       7 calls)
     sum_band     :     13.37s CPU     13.68s WALL (       7 calls)
     v_of_rho     :      1.64s CPU      1.68s WALL (       8 calls)
     newd         :      0.76s CPU      1.02s WALL (       8 calls)
     PAW_pot      :      0.94s CPU      0.94s WALL (       8 calls)
     mix_rho      :      0.21s CPU      0.22s WALL (       7 calls)

     Called by c_bands:
     init_us_2    :      2.20s CPU      2.21s WALL (     660 calls)
     cegterg      :     71.13s CPU     71.41s WALL (     308 calls)

     Called by *egterg:
     cdiaghg      :      0.07s CPU      0.07s WALL (    1071 calls)
     h_psi        :     67.77s CPU     68.04s WALL (    1115 calls)
     s_psi        :      2.85s CPU      2.87s WALL (    1115 calls)
     g_psi        :      0.35s CPU      0.36s WALL (     763 calls)

     Called by h_psi:
     h_psi:calbec :      2.70s CPU      2.71s WALL (    1115 calls)
     vloc_psi     :     62.02s CPU     62.27s WALL (    1115 calls)
     add_vuspsi   :      2.83s CPU      2.84s WALL (    1115 calls)

     General routines
     calbec       :      3.51s CPU      3.54s WALL (    1423 calls)
     fft          :      0.96s CPU      0.98s WALL (      88 calls)
     ffts         :      0.08s CPU      0.08s WALL (       7 calls)
     fftw         :     63.62s CPU     63.88s WALL (    9362 calls)

     Parallel routines

     PWSCF        :   1m38.84s CPU   1m40.61s WALL


   This run was terminated on:  10:30:55   4Aug2023            

=------------------------------------------------------------------------------=
   JOB DONE.
=------------------------------------------------------------------------------=
