
     Program PWSCF v.6.7MaX starts on  4Aug2023 at  7:28:29 

     This program is part of the open-source Quantum ESPRESSO suite
     for quantum simulation of materials; please cite
         "P. Giannozzi et al., J. Phys.:Condens. Matter 21 395502 (2009);
         "P. Giannozzi et al., J. Phys.:Condens. Matter 29 465901 (2017);
          URL http://www.quantum-espresso.org", 
     in publications or presentations arising from this work. More details at
     http://www.quantum-espresso.org/quote

     Parallel version (MPI), running on     1 processors

     MPI processes distributed on     1 nodes
     Waiting for input...
     Reading input from standard input

     Current dimensions of program PWSCF are:
     Max number of different atomic species (ntypx) = 10
     Max number of k-points (npk) =  40000
     Max angular momentum in pseudopotentials (lmaxx) =  3
     file C.pbe-n-kjpaw_psl.1.0.0.UPF: wavefunction(s)  2S 2P renormalized

     Subspace diagonalization in iterative solution of the eigenvalue problem:
     a serial algorithm will be used


     G-vector sticks info
     --------------------
     sticks:   dense  smooth     PW     G-vecs:    dense   smooth      PW
     Sum         421     421    121                56433    56433    9315



     bravais-lattice index     =           12
     lattice parameter (alat)  =       4.6620  a.u.
     unit-cell volume          =     711.3700 (a.u.)^3
     number of atoms/cell      =            2
     number of atomic types    =            1
     number of electrons       =         8.00
     number of Kohn-Sham states=            4
     kinetic-energy cutoff     =      70.0000  Ry
     charge density cutoff     =     280.0000  Ry
     scf convergence threshold =      1.0E-10
     mixing beta               =       0.5000
     number of iterations used =            8  plain     mixing
     Exchange-correlation= SLA  PW   PBX  PBC
                           (   1   4   3   4   0   0   0)

     celldm(1)=   4.661954  celldm(2)=   1.000000  celldm(3)=   8.107013
     celldm(4)=  -0.500000  celldm(5)=   0.000000  celldm(6)=   0.000000

     crystal axes: (cart. coord. in units of alat)
               a(1) = (   1.000000   0.000000   0.000000 )  
               a(2) = (  -0.500000   0.866025   0.000000 )  
               a(3) = (   0.000000   0.000000   8.107013 )  

     reciprocal axes: (cart. coord. in units 2 pi/alat)
               b(1) = (  1.000000  0.577350 -0.000000 )  
               b(2) = (  0.000000  1.154701  0.000000 )  
               b(3) = (  0.000000 -0.000000  0.123350 )  


     PseudoPot. # 1 for C  read from file:
     ./Pseudo/C.pbe-n-kjpaw_psl.1.0.0.UPF
     MD5 check sum: ecdf03482cb4269f2fcfa842d572f30f
     Pseudo is Projector augmented-wave + core cor, Zval =  4.0
     Generated using &quot;atomic&quot; code by A. Dal Corso  v.6.3
     Shape of augmentation charge: PSQ
     Using radial grid of 1073 points,  4 beta functions with: 
                l(1) =   0
                l(2) =   0
                l(3) =   1
                l(4) =   1
     Q(r) pseudized with 0 coefficients 


     atomic species   valence    mass     pseudopotential
        C              4.00    12.01070     C ( 1.00)

     24 Sym. Ops., with inversion, found (18 have fractional translation)



   Cartesian axes

     site n.     atom                  positions (alat units)
         1           C   tau(   1) = (   0.0000000   0.0000000   2.0267531  )
         2           C   tau(   2) = (  -0.0000000   0.5773503   2.0267531  )

     number of k points=    30
                       cart. coord. in units 2pi/alat
        k(    1) = (   0.0000000   0.0000000   0.0000000), wk =   0.0078125
        k(    2) = (   0.0000000   0.0721688   0.0000000), wk =   0.0468750
        k(    3) = (   0.0000000   0.1443376   0.0000000), wk =   0.0468750
        k(    4) = (   0.0000000   0.2165064   0.0000000), wk =   0.0468750
        k(    5) = (   0.0000000   0.2886751   0.0000000), wk =   0.0468750
        k(    6) = (   0.0000000   0.3608439   0.0000000), wk =   0.0468750
        k(    7) = (   0.0000000   0.4330127   0.0000000), wk =   0.0468750
        k(    8) = (   0.0000000   0.5051815   0.0000000), wk =   0.0468750
        k(    9) = (   0.0000000  -0.5773503   0.0000000), wk =   0.0234375
        k(   10) = (   0.0625000   0.1082532   0.0000000), wk =   0.0468750
        k(   11) = (   0.0625000   0.1804220   0.0000000), wk =   0.0937500
        k(   12) = (   0.0625000   0.2525907   0.0000000), wk =   0.0937500
        k(   13) = (   0.0625000   0.3247595   0.0000000), wk =   0.0937500
        k(   14) = (   0.0625000   0.3969283   0.0000000), wk =   0.0937500
        k(   15) = (   0.0625000   0.4690971   0.0000000), wk =   0.0937500
        k(   16) = (   0.0625000   0.5412659   0.0000000), wk =   0.0937500
        k(   17) = (   0.1250000   0.2165064   0.0000000), wk =   0.0468750
        k(   18) = (   0.1250000   0.2886751   0.0000000), wk =   0.0937500
        k(   19) = (   0.1250000   0.3608439   0.0000000), wk =   0.0937500
        k(   20) = (   0.1250000   0.4330127   0.0000000), wk =   0.0937500
        k(   21) = (   0.1250000   0.5051815   0.0000000), wk =   0.0937500
        k(   22) = (   0.1250000   0.5773503   0.0000000), wk =   0.0468750
        k(   23) = (   0.1875000   0.3247595   0.0000000), wk =   0.0468750
        k(   24) = (   0.1875000   0.3969283   0.0000000), wk =   0.0937500
        k(   25) = (   0.1875000   0.4690971   0.0000000), wk =   0.0937500
        k(   26) = (   0.1875000   0.5412659   0.0000000), wk =   0.0937500
        k(   27) = (   0.2500000   0.4330127   0.0000000), wk =   0.0468750
        k(   28) = (   0.2500000   0.5051815   0.0000000), wk =   0.0937500
        k(   29) = (   0.2500000   0.5773503   0.0000000), wk =   0.0468750
        k(   30) = (   0.3125000   0.5412659   0.0000000), wk =   0.0468750

     Dense  grid:    56433 G-vectors     FFT dimensions: (  27,  27, 216)

     Estimated max dynamical RAM per process >      88.44 MB

     Check: negative core charge=   -0.000002

     Initial potential from superposition of free atoms

     starting charge    7.99992, renormalised to    8.00000

     negative rho (up, down):  2.290E-04 0.000E+00
     Starting wfcs are    8 randomized atomic wfcs
     Checking if some PAW data can be deallocated... 

     total cpu time spent up to now is        3.6 secs

     Self-consistent Calculation

     iteration #  1     ecut=    70.00 Ry     beta= 0.50
     Davidson diagonalization with overlap
     ethr =  1.00E-02,  avg # of iterations =  2.0

     negative rho (up, down):  2.572E-04 0.000E+00

     total cpu time spent up to now is        8.8 secs

     total energy              =     -36.88512654 Ry
     estimated scf accuracy    <       0.17936605 Ry

     iteration #  2     ecut=    70.00 Ry     beta= 0.50
     Davidson diagonalization with overlap
     ethr =  2.24E-03,  avg # of iterations =  1.5

     negative rho (up, down):  2.943E-04 0.000E+00

     total cpu time spent up to now is       12.5 secs

     total energy              =     -36.88290244 Ry
     estimated scf accuracy    <       0.02285117 Ry

     iteration #  3     ecut=    70.00 Ry     beta= 0.50
     Davidson diagonalization with overlap
     ethr =  2.86E-04,  avg # of iterations =  2.0

     negative rho (up, down):  2.961E-04 0.000E+00

     total cpu time spent up to now is       17.3 secs

     total energy              =     -36.88786520 Ry
     estimated scf accuracy    <       0.00093424 Ry

     iteration #  4     ecut=    70.00 Ry     beta= 0.50
     Davidson diagonalization with overlap
     ethr =  1.17E-05,  avg # of iterations =  2.0

     negative rho (up, down):  3.035E-04 0.000E+00

     total cpu time spent up to now is       22.6 secs

     total energy              =     -36.88792204 Ry
     estimated scf accuracy    <       0.00034199 Ry

     iteration #  5     ecut=    70.00 Ry     beta= 0.50
     Davidson diagonalization with overlap
     ethr =  4.27E-06,  avg # of iterations =  2.0

     negative rho (up, down):  3.025E-04 0.000E+00

     total cpu time spent up to now is       27.8 secs

     total energy              =     -36.88799130 Ry
     estimated scf accuracy    <       0.00000502 Ry

     iteration #  6     ecut=    70.00 Ry     beta= 0.50
     Davidson diagonalization with overlap
     ethr =  6.27E-08,  avg # of iterations =  3.9

     negative rho (up, down):  3.024E-04 0.000E+00

     total cpu time spent up to now is       33.3 secs

     total energy              =     -36.88799455 Ry
     estimated scf accuracy    <       0.00000018 Ry

     iteration #  7     ecut=    70.00 Ry     beta= 0.50
     Davidson diagonalization with overlap
     ethr =  2.24E-09,  avg # of iterations =  3.8

     negative rho (up, down):  3.024E-04 0.000E+00

     total cpu time spent up to now is       38.7 secs

     total energy              =     -36.88799468 Ry
     estimated scf accuracy    <          7.6E-10 Ry

     iteration #  8     ecut=    70.00 Ry     beta= 0.50
     Davidson diagonalization with overlap
     ethr =  9.46E-12,  avg # of iterations =  5.7

     negative rho (up, down):  3.025E-04 0.000E+00

     total cpu time spent up to now is       45.7 secs

     total energy              =     -36.88799469 Ry
     estimated scf accuracy    <          1.4E-10 Ry

     iteration #  9     ecut=    70.00 Ry     beta= 0.50
     Davidson diagonalization with overlap
     ethr =  1.72E-12,  avg # of iterations =  2.3

     negative rho (up, down):  3.025E-04 0.000E+00

     total cpu time spent up to now is       50.3 secs

     End of self-consistent calculation

          k = 0.0000 0.0000 0.0000 (  7049 PWs)   bands (ev):

   -21.8728  -9.9685  -5.4086  -5.4086

          k = 0.0000 0.0722 0.0000 (  7041 PWs)   bands (ev):

   -21.7806  -9.8583  -5.7829  -5.6047

          k = 0.0000 0.1443 0.0000 (  7019 PWs)   bands (ev):

   -21.5047  -9.5292  -6.7901  -6.1108

          k = 0.0000 0.2165 0.0000 (  7019 PWs)   bands (ev):

   -21.0467  -8.9865  -8.1957  -6.7620

          k = 0.0000 0.2887 0.0000 (  7015 PWs)   bands (ev):

   -20.4099  -9.7950  -8.2414  -7.4178

          k = 0.0000 0.3608 0.0000 (  7033 PWs)   bands (ev):

   -19.5996 -11.4497  -7.9890  -7.3163

          k = 0.0000 0.4330 0.0000 (  7037 PWs)   bands (ev):

   -18.6261 -13.0702  -8.4240  -6.2634

          k = 0.0000 0.5052 0.0000 (  7058 PWs)   bands (ev):

   -17.5193 -14.5806  -8.6944  -5.2340

          k = 0.0000-0.5774 0.0000 (  7060 PWs)   bands (ev):

   -16.6392 -15.5978  -8.7859  -4.7129

          k = 0.0625 0.1083 0.0000 (  7027 PWs)   bands (ev):

   -21.5966  -9.6386  -6.4327  -5.9971

          k = 0.0625 0.1804 0.0000 (  7008 PWs)   bands (ev):

   -21.2296  -9.2026  -7.5649  -6.6516

          k = 0.0625 0.2526 0.0000 (  7011 PWs)   bands (ev):

   -20.6822  -9.0147  -8.5579  -7.3593

          k = 0.0625 0.3248 0.0000 (  7037 PWs)   bands (ev):

   -19.9586 -10.6122  -8.0031  -7.7202

          k = 0.0625 0.3969 0.0000 (  7041 PWs)   bands (ev):

   -19.0662 -12.2348  -8.5217  -6.7225

          k = 0.0625 0.4691 0.0000 (  7051 PWs)   bands (ev):

   -18.0212 -13.7973  -8.8819  -5.6493

          k = 0.0625 0.5413 0.0000 (  7066 PWs)   bands (ev):

   -16.9035 -15.1820  -9.0658  -4.7764

          k = 0.1250 0.2165 0.0000 (  7010 PWs)   bands (ev):

   -20.7733  -8.6640  -8.5929  -7.5129

          k = 0.1250 0.2887 0.0000 (  7032 PWs)   bands (ev):

   -20.1391  -9.8916  -8.3599  -7.9244

          k = 0.1250 0.3608 0.0000 (  7044 PWs)   bands (ev):

   -19.3330 -11.3798  -9.0295  -7.0054

          k = 0.1250 0.4330 0.0000 (  7044 PWs)   bands (ev):

   -18.3660 -12.9127  -9.5080  -5.9555

          k = 0.1250 0.5052 0.0000 (  7059 PWs)   bands (ev):

   -17.2695 -14.3751  -9.7964  -4.9164

          k = 0.1250 0.5774 0.0000 (  7066 PWs)   bands (ev):

   -16.4022 -15.3684  -9.8929  -4.3763

          k = 0.1875 0.3248 0.0000 (  7046 PWs)   bands (ev):

   -19.4223 -10.8770  -9.4375  -7.1008

          k = 0.1875 0.3969 0.0000 (  7033 PWs)   bands (ev):

   -18.5406 -12.0988 -10.2456  -6.1163

          k = 0.1875 0.4691 0.0000 (  7032 PWs)   bands (ev):

   -17.5126 -13.4691 -10.7251  -5.0416

          k = 0.1875 0.5413 0.0000 (  7028 PWs)   bands (ev):

   -16.4205 -14.7630 -10.9492  -4.1236

          k = 0.2500 0.4330 0.0000 (  7026 PWs)   bands (ev):

   -17.5959 -12.8965 -11.3185  -5.0900

          k = 0.2500 0.5052 0.0000 (  7028 PWs)   bands (ev):

   -16.5344 -13.9433 -11.9270  -4.0216

          k = 0.2500 0.5774 0.0000 (  7056 PWs)   bands (ev):

   -15.6929 -14.8141 -12.1016  -3.3755

          k = 0.3125 0.5413 0.0000 (  7050 PWs)   bands (ev):

   -15.5113 -14.5181 -12.7472  -2.9735

     highest occupied level (ev):    -2.9735

!    total energy              =     -36.88799468 Ry

     total all-electron energy =      -152.416189 Ry
     estimated scf accuracy    <          5.8E-11 Ry

     The total energy is the sum of the following terms:
     one-electron contribution =    -223.56886842 Ry
     hartree contribution      =     113.21726282 Ry
     xc contribution           =      -9.27227453 Ry
     ewald contribution        =      95.06982811 Ry
     one-center paw contrib.   =     -12.33394267 Ry

     convergence has been achieved in   9 iterations

     Writing output data file ./tmp/graphene1.save/

     init_run     :      3.42s CPU      3.50s WALL (       1 calls)
     electrons    :     46.44s CPU     46.93s WALL (       1 calls)

     Called by init_run:
     wfcinit      :      2.66s CPU      2.68s WALL (       1 calls)
     potinit      :      0.28s CPU      0.29s WALL (       1 calls)
     hinit0       :      0.37s CPU      0.38s WALL (       1 calls)

     Called by electrons:
     c_bands      :     37.77s CPU     37.90s WALL (       9 calls)
     sum_band     :      6.10s CPU      6.15s WALL (       9 calls)
     v_of_rho     :      1.05s CPU      1.07s WALL (      10 calls)
     newd         :      0.49s CPU      0.54s WALL (      10 calls)
     PAW_pot      :      1.11s CPU      1.21s WALL (      10 calls)
     mix_rho      :      0.14s CPU      0.14s WALL (       9 calls)

     Called by c_bands:
     init_us_2    :      1.10s CPU      1.12s WALL (     570 calls)
     cegterg      :     35.99s CPU     36.11s WALL (     270 calls)

     Called by *egterg:
     cdiaghg      :      0.07s CPU      0.07s WALL (    1025 calls)
     h_psi        :     33.40s CPU     33.52s WALL (    1055 calls)
     s_psi        :      1.50s CPU      1.50s WALL (    1055 calls)
     g_psi        :      0.20s CPU      0.20s WALL (     755 calls)

     Called by h_psi:
     h_psi:calbec :      1.49s CPU      1.49s WALL (    1055 calls)
     vloc_psi     :     30.28s CPU     30.39s WALL (    1055 calls)
     add_vuspsi   :      1.52s CPU      1.52s WALL (    1055 calls)

     General routines
     calbec       :      1.90s CPU      1.90s WALL (    1325 calls)
     fft          :      0.58s CPU      0.58s WALL (     110 calls)
     ffts         :      0.06s CPU      0.06s WALL (       9 calls)
     fftw         :     30.23s CPU     30.34s WALL (    8490 calls)

     Parallel routines

     PWSCF        :     50.01s CPU     50.93s WALL


   This run was terminated on:   7:29:20   4Aug2023            

=------------------------------------------------------------------------------=
   JOB DONE.
=------------------------------------------------------------------------------=
