
     Program PWSCF v.6.7MaX starts on  4Aug2023 at  7:27:58 

     This program is part of the open-source Quantum ESPRESSO suite
     for quantum simulation of materials; please cite
         "P. Giannozzi et al., J. Phys.:Condens. Matter 21 395502 (2009);
         "P. Giannozzi et al., J. Phys.:Condens. Matter 29 465901 (2017);
          URL http://www.quantum-espresso.org", 
     in publications or presentations arising from this work. More details at
     http://www.quantum-espresso.org/quote

     Parallel version (MPI), running on     1 processors

     MPI processes distributed on     1 nodes
     Waiting for input...
     Reading input from standard input

     Current dimensions of program PWSCF are:
     Max number of different atomic species (ntypx) = 10
     Max number of k-points (npk) =  40000
     Max angular momentum in pseudopotentials (lmaxx) =  3
     file C.pbe-n-kjpaw_psl.1.0.0.UPF: wavefunction(s)  2S 2P renormalized

     Subspace diagonalization in iterative solution of the eigenvalue problem:
     a serial algorithm will be used


     G-vector sticks info
     --------------------
     sticks:   dense  smooth     PW     G-vecs:    dense   smooth      PW
     Sum         361     361    109                44731    44731    7615



     bravais-lattice index     =           12
     lattice parameter (alat)  =       4.6620  a.u.
     unit-cell volume          =     711.3700 (a.u.)^3
     number of atoms/cell      =            2
     number of atomic types    =            1
     number of electrons       =         8.00
     number of Kohn-Sham states=            4
     kinetic-energy cutoff     =      60.0000  Ry
     charge density cutoff     =     240.0000  Ry
     scf convergence threshold =      1.0E-10
     mixing beta               =       0.5000
     number of iterations used =            8  plain     mixing
     Exchange-correlation= SLA  PW   PBX  PBC
                           (   1   4   3   4   0   0   0)

     celldm(1)=   4.661954  celldm(2)=   1.000000  celldm(3)=   8.107013
     celldm(4)=  -0.500000  celldm(5)=   0.000000  celldm(6)=   0.000000

     crystal axes: (cart. coord. in units of alat)
               a(1) = (   1.000000   0.000000   0.000000 )  
               a(2) = (  -0.500000   0.866025   0.000000 )  
               a(3) = (   0.000000   0.000000   8.107013 )  

     reciprocal axes: (cart. coord. in units 2 pi/alat)
               b(1) = (  1.000000  0.577350 -0.000000 )  
               b(2) = (  0.000000  1.154701  0.000000 )  
               b(3) = (  0.000000 -0.000000  0.123350 )  


     PseudoPot. # 1 for C  read from file:
     ./Pseudo/C.pbe-n-kjpaw_psl.1.0.0.UPF
     MD5 check sum: ecdf03482cb4269f2fcfa842d572f30f
     Pseudo is Projector augmented-wave + core cor, Zval =  4.0
     Generated using &quot;atomic&quot; code by A. Dal Corso  v.6.3
     Shape of augmentation charge: PSQ
     Using radial grid of 1073 points,  4 beta functions with: 
                l(1) =   0
                l(2) =   0
                l(3) =   1
                l(4) =   1
     Q(r) pseudized with 0 coefficients 


     atomic species   valence    mass     pseudopotential
        C              4.00    12.01070     C ( 1.00)

     24 Sym. Ops., with inversion, found (18 have fractional translation)



   Cartesian axes

     site n.     atom                  positions (alat units)
         1           C   tau(   1) = (   0.0000000   0.0000000   2.0267531  )
         2           C   tau(   2) = (  -0.0000000   0.5773503   2.0267531  )

     number of k points=    30
                       cart. coord. in units 2pi/alat
        k(    1) = (   0.0000000   0.0000000   0.0000000), wk =   0.0078125
        k(    2) = (   0.0000000   0.0721688   0.0000000), wk =   0.0468750
        k(    3) = (   0.0000000   0.1443376   0.0000000), wk =   0.0468750
        k(    4) = (   0.0000000   0.2165064   0.0000000), wk =   0.0468750
        k(    5) = (   0.0000000   0.2886751   0.0000000), wk =   0.0468750
        k(    6) = (   0.0000000   0.3608439   0.0000000), wk =   0.0468750
        k(    7) = (   0.0000000   0.4330127   0.0000000), wk =   0.0468750
        k(    8) = (   0.0000000   0.5051815   0.0000000), wk =   0.0468750
        k(    9) = (   0.0000000  -0.5773503   0.0000000), wk =   0.0234375
        k(   10) = (   0.0625000   0.1082532   0.0000000), wk =   0.0468750
        k(   11) = (   0.0625000   0.1804220   0.0000000), wk =   0.0937500
        k(   12) = (   0.0625000   0.2525907   0.0000000), wk =   0.0937500
        k(   13) = (   0.0625000   0.3247595   0.0000000), wk =   0.0937500
        k(   14) = (   0.0625000   0.3969283   0.0000000), wk =   0.0937500
        k(   15) = (   0.0625000   0.4690971   0.0000000), wk =   0.0937500
        k(   16) = (   0.0625000   0.5412659   0.0000000), wk =   0.0937500
        k(   17) = (   0.1250000   0.2165064   0.0000000), wk =   0.0468750
        k(   18) = (   0.1250000   0.2886751   0.0000000), wk =   0.0937500
        k(   19) = (   0.1250000   0.3608439   0.0000000), wk =   0.0937500
        k(   20) = (   0.1250000   0.4330127   0.0000000), wk =   0.0937500
        k(   21) = (   0.1250000   0.5051815   0.0000000), wk =   0.0937500
        k(   22) = (   0.1250000   0.5773503   0.0000000), wk =   0.0468750
        k(   23) = (   0.1875000   0.3247595   0.0000000), wk =   0.0468750
        k(   24) = (   0.1875000   0.3969283   0.0000000), wk =   0.0937500
        k(   25) = (   0.1875000   0.4690971   0.0000000), wk =   0.0937500
        k(   26) = (   0.1875000   0.5412659   0.0000000), wk =   0.0937500
        k(   27) = (   0.2500000   0.4330127   0.0000000), wk =   0.0468750
        k(   28) = (   0.2500000   0.5051815   0.0000000), wk =   0.0937500
        k(   29) = (   0.2500000   0.5773503   0.0000000), wk =   0.0468750
        k(   30) = (   0.3125000   0.5412659   0.0000000), wk =   0.0468750

     Dense  grid:    44731 G-vectors     FFT dimensions: (  24,  24, 192)

     Estimated max dynamical RAM per process >      69.19 MB

     Check: negative core charge=   -0.000011

     Initial potential from superposition of free atoms

     starting charge    7.99992, renormalised to    8.00000

     negative rho (up, down):  3.979E-04 0.000E+00
     Starting wfcs are    8 randomized atomic wfcs
     Checking if some PAW data can be deallocated... 

     total cpu time spent up to now is        2.4 secs

     Self-consistent Calculation

     iteration #  1     ecut=    60.00 Ry     beta= 0.50
     Davidson diagonalization with overlap
     ethr =  1.00E-02,  avg # of iterations =  2.0

     negative rho (up, down):  5.804E-04 0.000E+00

     total cpu time spent up to now is        5.8 secs

     total energy              =     -36.88439398 Ry
     estimated scf accuracy    <       0.18122093 Ry

     iteration #  2     ecut=    60.00 Ry     beta= 0.50
     Davidson diagonalization with overlap
     ethr =  2.27E-03,  avg # of iterations =  1.5

     negative rho (up, down):  7.569E-04 0.000E+00

     total cpu time spent up to now is        8.2 secs

     total energy              =     -36.88289873 Ry
     estimated scf accuracy    <       0.02235308 Ry

     iteration #  3     ecut=    60.00 Ry     beta= 0.50
     Davidson diagonalization with overlap
     ethr =  2.79E-04,  avg # of iterations =  2.0

     negative rho (up, down):  7.746E-04 0.000E+00

     total cpu time spent up to now is       11.0 secs

     total energy              =     -36.88765484 Ry
     estimated scf accuracy    <       0.00088590 Ry

     iteration #  4     ecut=    60.00 Ry     beta= 0.50
     Davidson diagonalization with overlap
     ethr =  1.11E-05,  avg # of iterations =  2.0

     negative rho (up, down):  7.991E-04 0.000E+00

     total cpu time spent up to now is       13.8 secs

     total energy              =     -36.88769448 Ry
     estimated scf accuracy    <       0.00035059 Ry

     iteration #  5     ecut=    60.00 Ry     beta= 0.50
     Davidson diagonalization with overlap
     ethr =  4.38E-06,  avg # of iterations =  2.0

     negative rho (up, down):  7.967E-04 0.000E+00

     total cpu time spent up to now is       16.6 secs

     total energy              =     -36.88776636 Ry
     estimated scf accuracy    <       0.00000508 Ry

     iteration #  6     ecut=    60.00 Ry     beta= 0.50
     Davidson diagonalization with overlap
     ethr =  6.35E-08,  avg # of iterations =  3.8

     negative rho (up, down):  7.964E-04 0.000E+00

     total cpu time spent up to now is       20.0 secs

     total energy              =     -36.88776944 Ry
     estimated scf accuracy    <       0.00000013 Ry

     iteration #  7     ecut=    60.00 Ry     beta= 0.50
     Davidson diagonalization with overlap
     ethr =  1.65E-09,  avg # of iterations =  4.0

     negative rho (up, down):  7.964E-04 0.000E+00

     total cpu time spent up to now is       23.5 secs

     total energy              =     -36.88776956 Ry
     estimated scf accuracy    <          6.8E-10 Ry

     iteration #  8     ecut=    60.00 Ry     beta= 0.50
     Davidson diagonalization with overlap
     ethr =  8.47E-12,  avg # of iterations =  5.1

     negative rho (up, down):  7.965E-04 0.000E+00

     total cpu time spent up to now is       27.3 secs

     total energy              =     -36.88776956 Ry
     estimated scf accuracy    <          5.1E-10 Ry

     iteration #  9     ecut=    60.00 Ry     beta= 0.50
     Davidson diagonalization with overlap
     ethr =  6.37E-12,  avg # of iterations =  2.0

     negative rho (up, down):  7.965E-04 0.000E+00

     total cpu time spent up to now is       30.1 secs

     End of self-consistent calculation

          k = 0.0000 0.0000 0.0000 (  5565 PWs)   bands (ev):

   -21.8749  -9.9695  -5.4099  -5.4099

          k = 0.0000 0.0722 0.0000 (  5560 PWs)   bands (ev):

   -21.7827  -9.8593  -5.7843  -5.6060

          k = 0.0000 0.1443 0.0000 (  5586 PWs)   bands (ev):

   -21.5068  -9.5302  -6.7916  -6.1122

          k = 0.0000 0.2165 0.0000 (  5584 PWs)   bands (ev):

   -21.0488  -8.9876  -8.1973  -6.7634

          k = 0.0000 0.2887 0.0000 (  5578 PWs)   bands (ev):

   -20.4119  -9.7965  -8.2424  -7.4192

          k = 0.0000 0.3608 0.0000 (  5586 PWs)   bands (ev):

   -19.6015 -11.4512  -7.9904  -7.3174

          k = 0.0000 0.4330 0.0000 (  5602 PWs)   bands (ev):

   -18.6279 -13.0717  -8.4253  -6.2644

          k = 0.0000 0.5052 0.0000 (  5606 PWs)   bands (ev):

   -17.5212 -14.5821  -8.6957  -5.2350

          k = 0.0000-0.5774 0.0000 (  5604 PWs)   bands (ev):

   -16.6412 -15.5991  -8.7873  -4.7139

          k = 0.0625 0.1083 0.0000 (  5573 PWs)   bands (ev):

   -21.5987  -9.6396  -6.4342  -5.9985

          k = 0.0625 0.1804 0.0000 (  5586 PWs)   bands (ev):

   -21.2317  -9.2036  -7.5664  -6.6530

          k = 0.0625 0.2526 0.0000 (  5576 PWs)   bands (ev):

   -20.6842  -9.0162  -8.5589  -7.3607

          k = 0.0625 0.3248 0.0000 (  5575 PWs)   bands (ev):

   -19.9606 -10.6137  -8.0044  -7.7213

          k = 0.0625 0.3969 0.0000 (  5601 PWs)   bands (ev):

   -19.0681 -12.2363  -8.5231  -6.7236

          k = 0.0625 0.4691 0.0000 (  5598 PWs)   bands (ev):

   -18.0230 -13.7987  -8.8832  -5.6503

          k = 0.0625 0.5413 0.0000 (  5599 PWs)   bands (ev):

   -16.9053 -15.1834  -9.0671  -4.7774

          k = 0.1250 0.2165 0.0000 (  5567 PWs)   bands (ev):

   -20.7753  -8.6651  -8.5945  -7.5142

          k = 0.1250 0.2887 0.0000 (  5575 PWs)   bands (ev):

   -20.1410  -9.8931  -8.3612  -7.9255

          k = 0.1250 0.3608 0.0000 (  5588 PWs)   bands (ev):

   -19.3349 -11.3813  -9.0308  -7.0064

          k = 0.1250 0.4330 0.0000 (  5598 PWs)   bands (ev):

   -18.3678 -12.9142  -9.5093  -5.9565

          k = 0.1250 0.5052 0.0000 (  5599 PWs)   bands (ev):

   -17.2713 -14.3766  -9.7977  -4.9174

          k = 0.1250 0.5774 0.0000 (  5600 PWs)   bands (ev):

   -16.4042 -15.3696  -9.8942  -4.3773

          k = 0.1875 0.3248 0.0000 (  5568 PWs)   bands (ev):

   -19.4242 -10.8785  -9.4387  -7.1019

          k = 0.1875 0.3969 0.0000 (  5578 PWs)   bands (ev):

   -18.5425 -12.1003 -10.2468  -6.1174

          k = 0.1875 0.4691 0.0000 (  5578 PWs)   bands (ev):

   -17.5144 -13.4706 -10.7263  -5.0426

          k = 0.1875 0.5413 0.0000 (  5584 PWs)   bands (ev):

   -16.4224 -14.7645 -10.9505  -4.1247

          k = 0.2500 0.4330 0.0000 (  5544 PWs)   bands (ev):

   -17.5977 -12.8981 -11.3196  -5.0910

          k = 0.2500 0.5052 0.0000 (  5555 PWs)   bands (ev):

   -16.5362 -13.9449 -11.9281  -4.0226

          k = 0.2500 0.5774 0.0000 (  5560 PWs)   bands (ev):

   -15.6948 -14.8156 -12.1027  -3.3765

          k = 0.3125 0.5413 0.0000 (  5566 PWs)   bands (ev):

   -15.5131 -14.5199 -12.7481  -2.9745

     highest occupied level (ev):    -2.9745

!    total energy              =     -36.88776956 Ry

     total all-electron energy =      -152.415964 Ry
     estimated scf accuracy    <          4.4E-11 Ry

     The total energy is the sum of the following terms:
     one-electron contribution =    -223.56764607 Ry
     hartree contribution      =     113.21605476 Ry
     xc contribution           =      -9.27217352 Ry
     ewald contribution        =      95.06982811 Ry
     one-center paw contrib.   =     -12.33383284 Ry

     convergence has been achieved in   9 iterations

     Writing output data file ./tmp/graphene1.save/

     init_run     :      2.22s CPU      2.28s WALL (       1 calls)
     electrons    :     27.61s CPU     27.73s WALL (       1 calls)

     Called by init_run:
     wfcinit      :      1.55s CPU      1.56s WALL (       1 calls)
     potinit      :      0.24s CPU      0.27s WALL (       1 calls)
     hinit0       :      0.34s CPU      0.34s WALL (       1 calls)

     Called by electrons:
     c_bands      :     21.40s CPU     21.47s WALL (       9 calls)
     sum_band     :      4.00s CPU      4.02s WALL (       9 calls)
     v_of_rho     :      0.88s CPU      0.90s WALL (      10 calls)
     newd         :      0.35s CPU      0.38s WALL (      10 calls)
     PAW_pot      :      1.08s CPU      1.08s WALL (      10 calls)
     mix_rho      :      0.11s CPU      0.11s WALL (       9 calls)

     Called by c_bands:
     init_us_2    :      0.87s CPU      0.88s WALL (     570 calls)
     cegterg      :     20.05s CPU     20.12s WALL (     270 calls)

     Called by *egterg:
     cdiaghg      :      0.06s CPU      0.06s WALL (    1002 calls)
     h_psi        :     17.76s CPU     17.81s WALL (    1032 calls)
     s_psi        :      1.09s CPU      1.10s WALL (    1032 calls)
     g_psi        :      0.15s CPU      0.15s WALL (     732 calls)

     Called by h_psi:
     h_psi:calbec :      1.05s CPU      1.06s WALL (    1032 calls)
     vloc_psi     :     15.54s CPU     15.58s WALL (    1032 calls)
     add_vuspsi   :      1.09s CPU      1.10s WALL (    1032 calls)

     General routines
     calbec       :      1.39s CPU      1.39s WALL (    1302 calls)
     fft          :      0.43s CPU      0.43s WALL (     110 calls)
     ffts         :      0.04s CPU      0.04s WALL (       9 calls)
     fftw         :     15.59s CPU     15.64s WALL (    8348 calls)

     Parallel routines

     PWSCF        :     29.93s CPU     30.15s WALL


   This run was terminated on:   7:28:28   4Aug2023            

=------------------------------------------------------------------------------=
   JOB DONE.
=------------------------------------------------------------------------------=
