
     Program PWSCF v.6.7MaX starts on  4Aug2023 at  7:29:22 

     This program is part of the open-source Quantum ESPRESSO suite
     for quantum simulation of materials; please cite
         "P. Giannozzi et al., J. Phys.:Condens. Matter 21 395502 (2009);
         "P. Giannozzi et al., J. Phys.:Condens. Matter 29 465901 (2017);
          URL http://www.quantum-espresso.org", 
     in publications or presentations arising from this work. More details at
     http://www.quantum-espresso.org/quote

     Parallel version (MPI), running on     1 processors

     MPI processes distributed on     1 nodes
     Waiting for input...
     Reading input from standard input

     Current dimensions of program PWSCF are:
     Max number of different atomic species (ntypx) = 10
     Max number of k-points (npk) =  40000
     Max angular momentum in pseudopotentials (lmaxx) =  3
     file C.pbe-n-kjpaw_psl.1.0.0.UPF: wavefunction(s)  2S 2P renormalized

     Subspace diagonalization in iterative solution of the eigenvalue problem:
     a serial algorithm will be used


     G-vector sticks info
     --------------------
     sticks:   dense  smooth     PW     G-vecs:    dense   smooth      PW
     Sum         475     475    151                68669    68669   11367



     bravais-lattice index     =           12
     lattice parameter (alat)  =       4.6620  a.u.
     unit-cell volume          =     711.3700 (a.u.)^3
     number of atoms/cell      =            2
     number of atomic types    =            1
     number of electrons       =         8.00
     number of Kohn-Sham states=            4
     kinetic-energy cutoff     =      80.0000  Ry
     charge density cutoff     =     320.0000  Ry
     scf convergence threshold =      1.0E-10
     mixing beta               =       0.5000
     number of iterations used =            8  plain     mixing
     Exchange-correlation= SLA  PW   PBX  PBC
                           (   1   4   3   4   0   0   0)

     celldm(1)=   4.661954  celldm(2)=   1.000000  celldm(3)=   8.107013
     celldm(4)=  -0.500000  celldm(5)=   0.000000  celldm(6)=   0.000000

     crystal axes: (cart. coord. in units of alat)
               a(1) = (   1.000000   0.000000   0.000000 )  
               a(2) = (  -0.500000   0.866025   0.000000 )  
               a(3) = (   0.000000   0.000000   8.107013 )  

     reciprocal axes: (cart. coord. in units 2 pi/alat)
               b(1) = (  1.000000  0.577350 -0.000000 )  
               b(2) = (  0.000000  1.154701  0.000000 )  
               b(3) = (  0.000000 -0.000000  0.123350 )  


     PseudoPot. # 1 for C  read from file:
     ./Pseudo/C.pbe-n-kjpaw_psl.1.0.0.UPF
     MD5 check sum: ecdf03482cb4269f2fcfa842d572f30f
     Pseudo is Projector augmented-wave + core cor, Zval =  4.0
     Generated using &quot;atomic&quot; code by A. Dal Corso  v.6.3
     Shape of augmentation charge: PSQ
     Using radial grid of 1073 points,  4 beta functions with: 
                l(1) =   0
                l(2) =   0
                l(3) =   1
                l(4) =   1
     Q(r) pseudized with 0 coefficients 


     atomic species   valence    mass     pseudopotential
        C              4.00    12.01070     C ( 1.00)

     24 Sym. Ops., with inversion, found (18 have fractional translation)



   Cartesian axes

     site n.     atom                  positions (alat units)
         1           C   tau(   1) = (   0.0000000   0.0000000   2.0267531  )
         2           C   tau(   2) = (  -0.0000000   0.5773503   2.0267531  )

     number of k points=    30
                       cart. coord. in units 2pi/alat
        k(    1) = (   0.0000000   0.0000000   0.0000000), wk =   0.0078125
        k(    2) = (   0.0000000   0.0721688   0.0000000), wk =   0.0468750
        k(    3) = (   0.0000000   0.1443376   0.0000000), wk =   0.0468750
        k(    4) = (   0.0000000   0.2165064   0.0000000), wk =   0.0468750
        k(    5) = (   0.0000000   0.2886751   0.0000000), wk =   0.0468750
        k(    6) = (   0.0000000   0.3608439   0.0000000), wk =   0.0468750
        k(    7) = (   0.0000000   0.4330127   0.0000000), wk =   0.0468750
        k(    8) = (   0.0000000   0.5051815   0.0000000), wk =   0.0468750
        k(    9) = (   0.0000000  -0.5773503   0.0000000), wk =   0.0234375
        k(   10) = (   0.0625000   0.1082532   0.0000000), wk =   0.0468750
        k(   11) = (   0.0625000   0.1804220   0.0000000), wk =   0.0937500
        k(   12) = (   0.0625000   0.2525907   0.0000000), wk =   0.0937500
        k(   13) = (   0.0625000   0.3247595   0.0000000), wk =   0.0937500
        k(   14) = (   0.0625000   0.3969283   0.0000000), wk =   0.0937500
        k(   15) = (   0.0625000   0.4690971   0.0000000), wk =   0.0937500
        k(   16) = (   0.0625000   0.5412659   0.0000000), wk =   0.0937500
        k(   17) = (   0.1250000   0.2165064   0.0000000), wk =   0.0468750
        k(   18) = (   0.1250000   0.2886751   0.0000000), wk =   0.0937500
        k(   19) = (   0.1250000   0.3608439   0.0000000), wk =   0.0937500
        k(   20) = (   0.1250000   0.4330127   0.0000000), wk =   0.0937500
        k(   21) = (   0.1250000   0.5051815   0.0000000), wk =   0.0937500
        k(   22) = (   0.1250000   0.5773503   0.0000000), wk =   0.0468750
        k(   23) = (   0.1875000   0.3247595   0.0000000), wk =   0.0468750
        k(   24) = (   0.1875000   0.3969283   0.0000000), wk =   0.0937500
        k(   25) = (   0.1875000   0.4690971   0.0000000), wk =   0.0937500
        k(   26) = (   0.1875000   0.5412659   0.0000000), wk =   0.0937500
        k(   27) = (   0.2500000   0.4330127   0.0000000), wk =   0.0468750
        k(   28) = (   0.2500000   0.5051815   0.0000000), wk =   0.0937500
        k(   29) = (   0.2500000   0.5773503   0.0000000), wk =   0.0468750
        k(   30) = (   0.3125000   0.5412659   0.0000000), wk =   0.0468750

     Dense  grid:    68669 G-vectors     FFT dimensions: (  27,  27, 216)

     Estimated max dynamical RAM per process >     105.29 MB

     Check: negative core charge=   -0.000004

     Initial potential from superposition of free atoms

     starting charge    7.99992, renormalised to    8.00000

     negative rho (up, down):  4.135E-05 0.000E+00
     Starting wfcs are    8 randomized atomic wfcs
     Checking if some PAW data can be deallocated... 

     total cpu time spent up to now is        4.1 secs

     Self-consistent Calculation

     iteration #  1     ecut=    80.00 Ry     beta= 0.50
     Davidson diagonalization with overlap
     ethr =  1.00E-02,  avg # of iterations =  2.0

     negative rho (up, down):  1.015E-04 0.000E+00

     total cpu time spent up to now is        9.4 secs

     total energy              =     -36.88537642 Ry
     estimated scf accuracy    <       0.17895945 Ry

     iteration #  2     ecut=    80.00 Ry     beta= 0.50
     Davidson diagonalization with overlap
     ethr =  2.24E-03,  avg # of iterations =  1.5

     negative rho (up, down):  1.633E-04 0.000E+00

     total cpu time spent up to now is       13.6 secs

     total energy              =     -36.88300177 Ry
     estimated scf accuracy    <       0.02296390 Ry

     iteration #  3     ecut=    80.00 Ry     beta= 0.50
     Davidson diagonalization with overlap
     ethr =  2.87E-04,  avg # of iterations =  2.0

     negative rho (up, down):  1.718E-04 0.000E+00

     total cpu time spent up to now is       19.0 secs

     total energy              =     -36.88801239 Ry
     estimated scf accuracy    <       0.00094419 Ry

     iteration #  4     ecut=    80.00 Ry     beta= 0.50
     Davidson diagonalization with overlap
     ethr =  1.18E-05,  avg # of iterations =  2.0

     negative rho (up, down):  1.816E-04 0.000E+00

     total cpu time spent up to now is       24.4 secs

     total energy              =     -36.88807291 Ry
     estimated scf accuracy    <       0.00033736 Ry

     iteration #  5     ecut=    80.00 Ry     beta= 0.50
     Davidson diagonalization with overlap
     ethr =  4.22E-06,  avg # of iterations =  2.0

     negative rho (up, down):  1.808E-04 0.000E+00

     total cpu time spent up to now is       30.1 secs

     total energy              =     -36.88814068 Ry
     estimated scf accuracy    <       0.00000492 Ry

     iteration #  6     ecut=    80.00 Ry     beta= 0.50
     Davidson diagonalization with overlap
     ethr =  6.14E-08,  avg # of iterations =  4.2

     negative rho (up, down):  1.807E-04 0.000E+00

     total cpu time spent up to now is       36.1 secs

     total energy              =     -36.88814392 Ry
     estimated scf accuracy    <       0.00000018 Ry

     iteration #  7     ecut=    80.00 Ry     beta= 0.50
     Davidson diagonalization with overlap
     ethr =  2.29E-09,  avg # of iterations =  3.4

     negative rho (up, down):  1.807E-04 0.000E+00

     total cpu time spent up to now is       42.3 secs

     total energy              =     -36.88814402 Ry
     estimated scf accuracy    <          1.2E-09 Ry

     iteration #  8     ecut=    80.00 Ry     beta= 0.50
     Davidson diagonalization with overlap
     ethr =  1.50E-11,  avg # of iterations =  5.5

     negative rho (up, down):  1.807E-04 0.000E+00

     total cpu time spent up to now is       50.0 secs

     total energy              =     -36.88814403 Ry
     estimated scf accuracy    <          1.7E-10 Ry

     iteration #  9     ecut=    80.00 Ry     beta= 0.50
     Davidson diagonalization with overlap
     ethr =  2.17E-12,  avg # of iterations =  2.5

     negative rho (up, down):  1.807E-04 0.000E+00

     total cpu time spent up to now is       55.1 secs

     End of self-consistent calculation

          k = 0.0000 0.0000 0.0000 (  8651 PWs)   bands (ev):

   -21.8729  -9.9689  -5.4090  -5.4090

          k = 0.0000 0.0722 0.0000 (  8681 PWs)   bands (ev):

   -21.7807  -9.8586  -5.7833  -5.6051

          k = 0.0000 0.1443 0.0000 (  8653 PWs)   bands (ev):

   -21.5048  -9.5295  -6.7905  -6.1112

          k = 0.0000 0.2165 0.0000 (  8611 PWs)   bands (ev):

   -21.0469  -8.9869  -8.1961  -6.7624

          k = 0.0000 0.2887 0.0000 (  8603 PWs)   bands (ev):

   -20.4101  -9.7953  -8.2417  -7.4183

          k = 0.0000 0.3608 0.0000 (  8578 PWs)   bands (ev):

   -19.5998 -11.4500  -7.9895  -7.3167

          k = 0.0000 0.4330 0.0000 (  8558 PWs)   bands (ev):

   -18.6263 -13.0704  -8.4245  -6.2637

          k = 0.0000 0.5052 0.0000 (  8574 PWs)   bands (ev):

   -17.5195 -14.5809  -8.6948  -5.2343

          k = 0.0000-0.5774 0.0000 (  8562 PWs)   bands (ev):

   -16.6393 -15.5981  -8.7864  -4.7132

          k = 0.0625 0.1083 0.0000 (  8673 PWs)   bands (ev):

   -21.5967  -9.6389  -6.4331  -5.9975

          k = 0.0625 0.1804 0.0000 (  8637 PWs)   bands (ev):

   -21.2298  -9.2029  -7.5652  -6.6521

          k = 0.0625 0.2526 0.0000 (  8594 PWs)   bands (ev):

   -20.6824  -9.0150  -8.5583  -7.3598

          k = 0.0625 0.3248 0.0000 (  8595 PWs)   bands (ev):

   -19.9588 -10.6125  -8.0035  -7.7206

          k = 0.0625 0.3969 0.0000 (  8575 PWs)   bands (ev):

   -19.0664 -12.2350  -8.5222  -6.7228

          k = 0.0625 0.4691 0.0000 (  8574 PWs)   bands (ev):

   -18.0214 -13.7975  -8.8823  -5.6496

          k = 0.0625 0.5413 0.0000 (  8573 PWs)   bands (ev):

   -16.9036 -15.1823  -9.0663  -4.7766

          k = 0.1250 0.2165 0.0000 (  8605 PWs)   bands (ev):

   -20.7734  -8.6644  -8.5933  -7.5133

          k = 0.1250 0.2887 0.0000 (  8573 PWs)   bands (ev):

   -20.1393  -9.8919  -8.3603  -7.9248

          k = 0.1250 0.3608 0.0000 (  8584 PWs)   bands (ev):

   -19.3331 -11.3800  -9.0299  -7.0057

          k = 0.1250 0.4330 0.0000 (  8597 PWs)   bands (ev):

   -18.3661 -12.9130  -9.5084  -5.9558

          k = 0.1250 0.5052 0.0000 (  8581 PWs)   bands (ev):

   -17.2697 -14.3754  -9.7968  -4.9167

          k = 0.1250 0.5774 0.0000 (  8556 PWs)   bands (ev):

   -16.4023 -15.3686  -9.8933  -4.3766

          k = 0.1875 0.3248 0.0000 (  8599 PWs)   bands (ev):

   -19.4225 -10.8772  -9.4379  -7.1012

          k = 0.1875 0.3969 0.0000 (  8599 PWs)   bands (ev):

   -18.5408 -12.0990 -10.2460  -6.1166

          k = 0.1875 0.4691 0.0000 (  8599 PWs)   bands (ev):

   -17.5128 -13.4693 -10.7255  -5.0419

          k = 0.1875 0.5413 0.0000 (  8563 PWs)   bands (ev):

   -16.4207 -14.7633 -10.9496  -4.1239

          k = 0.2500 0.4330 0.0000 (  8593 PWs)   bands (ev):

   -17.5961 -12.8967 -11.3189  -5.0903

          k = 0.2500 0.5052 0.0000 (  8591 PWs)   bands (ev):

   -16.5346 -13.9435 -11.9274  -4.0219

          k = 0.2500 0.5774 0.0000 (  8594 PWs)   bands (ev):

   -15.6931 -14.8143 -12.1020  -3.3758

          k = 0.3125 0.5413 0.0000 (  8593 PWs)   bands (ev):

   -15.5115 -14.5183 -12.7476  -2.9737

     highest occupied level (ev):    -2.9737

!    total energy              =     -36.88814403 Ry

     total all-electron energy =      -152.416338 Ry
     estimated scf accuracy    <          6.8E-11 Ry

     The total energy is the sum of the following terms:
     one-electron contribution =    -223.56897878 Ry
     hartree contribution      =     113.21719725 Ry
     xc contribution           =      -9.27222255 Ry
     ewald contribution        =      95.06982811 Ry
     one-center paw contrib.   =     -12.33396806 Ry

     convergence has been achieved in   9 iterations

     Writing output data file ./tmp/graphene1.save/

     init_run     :      3.87s CPU      3.94s WALL (       1 calls)
     electrons    :     50.41s CPU     51.10s WALL (       1 calls)

     Called by init_run:
     wfcinit      :      2.92s CPU      2.95s WALL (       1 calls)
     potinit      :      0.36s CPU      0.36s WALL (       1 calls)
     hinit0       :      0.45s CPU      0.46s WALL (       1 calls)

     Called by electrons:
     c_bands      :     40.76s CPU     40.92s WALL (       9 calls)
     sum_band     :      6.66s CPU      6.92s WALL (       9 calls)
     v_of_rho     :      1.28s CPU      1.30s WALL (      10 calls)
     newd         :      0.64s CPU      0.88s WALL (      10 calls)
     PAW_pot      :      1.16s CPU      1.17s WALL (      10 calls)
     mix_rho      :      0.20s CPU      0.21s WALL (       9 calls)

     Called by c_bands:
     init_us_2    :      1.32s CPU      1.34s WALL (     570 calls)
     cegterg      :     38.58s CPU     38.74s WALL (     270 calls)

     Called by *egterg:
     cdiaghg      :      0.06s CPU      0.06s WALL (    1025 calls)
     h_psi        :     35.18s CPU     35.33s WALL (    1055 calls)
     s_psi        :      1.82s CPU      1.83s WALL (    1055 calls)
     g_psi        :      0.24s CPU      0.24s WALL (     755 calls)

     Called by h_psi:
     h_psi:calbec :      1.78s CPU      1.79s WALL (    1055 calls)
     vloc_psi     :     31.46s CPU     31.59s WALL (    1055 calls)
     add_vuspsi   :      1.81s CPU      1.82s WALL (    1055 calls)

     General routines
     calbec       :      2.26s CPU      2.27s WALL (    1325 calls)
     fft          :      0.60s CPU      0.60s WALL (     110 calls)
     ffts         :      0.05s CPU      0.05s WALL (       9 calls)
     fftw         :     31.42s CPU     31.56s WALL (    8452 calls)

     Parallel routines

     PWSCF        :     54.42s CPU     55.22s WALL


   This run was terminated on:   7:30:17   4Aug2023            

=------------------------------------------------------------------------------=
   JOB DONE.
=------------------------------------------------------------------------------=
