
     Program PWSCF v.6.7MaX starts on  4Aug2023 at  7:36: 2 

     This program is part of the open-source Quantum ESPRESSO suite
     for quantum simulation of materials; please cite
         "P. Giannozzi et al., J. Phys.:Condens. Matter 21 395502 (2009);
         "P. Giannozzi et al., J. Phys.:Condens. Matter 29 465901 (2017);
          URL http://www.quantum-espresso.org", 
     in publications or presentations arising from this work. More details at
     http://www.quantum-espresso.org/quote

     Parallel version (MPI), running on     1 processors

     MPI processes distributed on     1 nodes
     Waiting for input...
     Reading input from standard input

     Current dimensions of program PWSCF are:
     Max number of different atomic species (ntypx) = 10
     Max number of k-points (npk) =  40000
     Max angular momentum in pseudopotentials (lmaxx) =  3
     file C.pbe-n-kjpaw_psl.1.0.0.UPF: wavefunction(s)  2S 2P renormalized

     Subspace diagonalization in iterative solution of the eigenvalue problem:
     a serial algorithm will be used


     G-vector sticks info
     --------------------
     sticks:   dense  smooth     PW     G-vecs:    dense   smooth      PW
     Sum         721     721    211               126311   126311   19779



     bravais-lattice index     =           12
     lattice parameter (alat)  =       4.6620  a.u.
     unit-cell volume          =     711.3700 (a.u.)^3
     number of atoms/cell      =            2
     number of atomic types    =            1
     number of electrons       =         8.00
     number of Kohn-Sham states=            4
     kinetic-energy cutoff     =     120.0000  Ry
     charge density cutoff     =     480.0000  Ry
     scf convergence threshold =      1.0E-10
     mixing beta               =       0.5000
     number of iterations used =            8  plain     mixing
     Exchange-correlation= SLA  PW   PBX  PBC
                           (   1   4   3   4   0   0   0)

     celldm(1)=   4.661954  celldm(2)=   1.000000  celldm(3)=   8.107013
     celldm(4)=  -0.500000  celldm(5)=   0.000000  celldm(6)=   0.000000

     crystal axes: (cart. coord. in units of alat)
               a(1) = (   1.000000   0.000000   0.000000 )  
               a(2) = (  -0.500000   0.866025   0.000000 )  
               a(3) = (   0.000000   0.000000   8.107013 )  

     reciprocal axes: (cart. coord. in units 2 pi/alat)
               b(1) = (  1.000000  0.577350 -0.000000 )  
               b(2) = (  0.000000  1.154701  0.000000 )  
               b(3) = (  0.000000 -0.000000  0.123350 )  


     PseudoPot. # 1 for C  read from file:
     ./Pseudo/C.pbe-n-kjpaw_psl.1.0.0.UPF
     MD5 check sum: ecdf03482cb4269f2fcfa842d572f30f
     Pseudo is Projector augmented-wave + core cor, Zval =  4.0
     Generated using &quot;atomic&quot; code by A. Dal Corso  v.6.3
     Shape of augmentation charge: PSQ
     Using radial grid of 1073 points,  4 beta functions with: 
                l(1) =   0
                l(2) =   0
                l(3) =   1
                l(4) =   1
     Q(r) pseudized with 0 coefficients 


     atomic species   valence    mass     pseudopotential
        C              4.00    12.01070     C ( 1.00)

     24 Sym. Ops., with inversion, found (18 have fractional translation)



   Cartesian axes

     site n.     atom                  positions (alat units)
         1           C   tau(   1) = (   0.0000000   0.0000000   2.0267531  )
         2           C   tau(   2) = (  -0.0000000   0.5773503   2.0267531  )

     number of k points=    30
                       cart. coord. in units 2pi/alat
        k(    1) = (   0.0000000   0.0000000   0.0000000), wk =   0.0078125
        k(    2) = (   0.0000000   0.0721688   0.0000000), wk =   0.0468750
        k(    3) = (   0.0000000   0.1443376   0.0000000), wk =   0.0468750
        k(    4) = (   0.0000000   0.2165064   0.0000000), wk =   0.0468750
        k(    5) = (   0.0000000   0.2886751   0.0000000), wk =   0.0468750
        k(    6) = (   0.0000000   0.3608439   0.0000000), wk =   0.0468750
        k(    7) = (   0.0000000   0.4330127   0.0000000), wk =   0.0468750
        k(    8) = (   0.0000000   0.5051815   0.0000000), wk =   0.0468750
        k(    9) = (   0.0000000  -0.5773503   0.0000000), wk =   0.0234375
        k(   10) = (   0.0625000   0.1082532   0.0000000), wk =   0.0468750
        k(   11) = (   0.0625000   0.1804220   0.0000000), wk =   0.0937500
        k(   12) = (   0.0625000   0.2525907   0.0000000), wk =   0.0937500
        k(   13) = (   0.0625000   0.3247595   0.0000000), wk =   0.0937500
        k(   14) = (   0.0625000   0.3969283   0.0000000), wk =   0.0937500
        k(   15) = (   0.0625000   0.4690971   0.0000000), wk =   0.0937500
        k(   16) = (   0.0625000   0.5412659   0.0000000), wk =   0.0937500
        k(   17) = (   0.1250000   0.2165064   0.0000000), wk =   0.0468750
        k(   18) = (   0.1250000   0.2886751   0.0000000), wk =   0.0937500
        k(   19) = (   0.1250000   0.3608439   0.0000000), wk =   0.0937500
        k(   20) = (   0.1250000   0.4330127   0.0000000), wk =   0.0937500
        k(   21) = (   0.1250000   0.5051815   0.0000000), wk =   0.0937500
        k(   22) = (   0.1250000   0.5773503   0.0000000), wk =   0.0468750
        k(   23) = (   0.1875000   0.3247595   0.0000000), wk =   0.0468750
        k(   24) = (   0.1875000   0.3969283   0.0000000), wk =   0.0937500
        k(   25) = (   0.1875000   0.4690971   0.0000000), wk =   0.0937500
        k(   26) = (   0.1875000   0.5412659   0.0000000), wk =   0.0937500
        k(   27) = (   0.2500000   0.4330127   0.0000000), wk =   0.0468750
        k(   28) = (   0.2500000   0.5051815   0.0000000), wk =   0.0937500
        k(   29) = (   0.2500000   0.5773503   0.0000000), wk =   0.0468750
        k(   30) = (   0.3125000   0.5412659   0.0000000), wk =   0.0468750

     Dense  grid:   126311 G-vectors     FFT dimensions: (  36,  36, 270)

     Estimated max dynamical RAM per process >     197.51 MB

     Initial potential from superposition of free atoms

     starting charge    7.99992, renormalised to    8.00000

     negative rho (up, down):  6.473E-05 0.000E+00
     Starting wfcs are    8 randomized atomic wfcs
     Checking if some PAW data can be deallocated... 

     total cpu time spent up to now is        9.5 secs

     Self-consistent Calculation

     iteration #  1     ecut=   120.00 Ry     beta= 0.50
     Davidson diagonalization with overlap
     ethr =  1.00E-02,  avg # of iterations =  2.0

     negative rho (up, down):  8.329E-05 0.000E+00

     total cpu time spent up to now is       23.7 secs

     total energy              =     -36.88550514 Ry
     estimated scf accuracy    <       0.17864725 Ry

     iteration #  2     ecut=   120.00 Ry     beta= 0.50
     Davidson diagonalization with overlap
     ethr =  2.23E-03,  avg # of iterations =  1.5

     negative rho (up, down):  1.051E-04 0.000E+00

     total cpu time spent up to now is       33.8 secs

     total energy              =     -36.88300273 Ry
     estimated scf accuracy    <       0.02306765 Ry

     iteration #  3     ecut=   120.00 Ry     beta= 0.50
     Davidson diagonalization with overlap
     ethr =  2.88E-04,  avg # of iterations =  2.0

     negative rho (up, down):  1.071E-04 0.000E+00

     total cpu time spent up to now is       48.8 secs

     total energy              =     -36.88808037 Ry
     estimated scf accuracy    <       0.00095688 Ry

     iteration #  4     ecut=   120.00 Ry     beta= 0.50
     Davidson diagonalization with overlap
     ethr =  1.20E-05,  avg # of iterations =  2.0

     negative rho (up, down):  1.114E-04 0.000E+00

     total cpu time spent up to now is       63.6 secs

     total energy              =     -36.88814379 Ry
     estimated scf accuracy    <       0.00034352 Ry

     iteration #  5     ecut=   120.00 Ry     beta= 0.50
     Davidson diagonalization with overlap
     ethr =  4.29E-06,  avg # of iterations =  2.0

     negative rho (up, down):  1.109E-04 0.000E+00

     total cpu time spent up to now is       77.5 secs

     total energy              =     -36.88821294 Ry
     estimated scf accuracy    <       0.00000502 Ry

     iteration #  6     ecut=   120.00 Ry     beta= 0.50
     Davidson diagonalization with overlap
     ethr =  6.28E-08,  avg # of iterations =  4.2

     negative rho (up, down):  1.108E-04 0.000E+00

     total cpu time spent up to now is       95.3 secs

     total energy              =     -36.88821609 Ry
     estimated scf accuracy    <       0.00000020 Ry

     iteration #  7     ecut=   120.00 Ry     beta= 0.50
     Davidson diagonalization with overlap
     ethr =  2.44E-09,  avg # of iterations =  3.6

     negative rho (up, down):  1.109E-04 0.000E+00

     total cpu time spent up to now is      112.2 secs

     total energy              =     -36.88821620 Ry
     estimated scf accuracy    <          1.2E-09 Ry

     iteration #  8     ecut=   120.00 Ry     beta= 0.50
     Davidson diagonalization with overlap
     ethr =  1.47E-11,  avg # of iterations =  5.3

     negative rho (up, down):  1.109E-04 0.000E+00

     total cpu time spent up to now is      132.1 secs

     total energy              =     -36.88821621 Ry
     estimated scf accuracy    <          2.3E-10 Ry

     iteration #  9     ecut=   120.00 Ry     beta= 0.50
     Davidson diagonalization with overlap
     ethr =  2.92E-12,  avg # of iterations =  2.3

     negative rho (up, down):  1.109E-04 0.000E+00

     total cpu time spent up to now is      145.9 secs

     End of self-consistent calculation

          k = 0.0000 0.0000 0.0000 ( 15773 PWs)   bands (ev):

   -21.8728  -9.9686  -5.4087  -5.4087

          k = 0.0000 0.0722 0.0000 ( 15730 PWs)   bands (ev):

   -21.7806  -9.8584  -5.7830  -5.6048

          k = 0.0000 0.1443 0.0000 ( 15698 PWs)   bands (ev):

   -21.5047  -9.5293  -6.7903  -6.1110

          k = 0.0000 0.2165 0.0000 ( 15724 PWs)   bands (ev):

   -21.0468  -8.9867  -8.1959  -6.7622

          k = 0.0000 0.2887 0.0000 ( 15772 PWs)   bands (ev):

   -20.4100  -9.7951  -8.2415  -7.4181

          k = 0.0000 0.3608 0.0000 ( 15804 PWs)   bands (ev):

   -19.5997 -11.4499  -7.9893  -7.3164

          k = 0.0000 0.4330 0.0000 ( 15812 PWs)   bands (ev):

   -18.6262 -13.0703  -8.4242  -6.2635

          k = 0.0000 0.5052 0.0000 ( 15840 PWs)   bands (ev):

   -17.5194 -14.5808  -8.6946  -5.2341

          k = 0.0000-0.5774 0.0000 ( 15822 PWs)   bands (ev):

   -16.6392 -15.5980  -8.7862  -4.7130

          k = 0.0625 0.1083 0.0000 ( 15715 PWs)   bands (ev):

   -21.5966  -9.6387  -6.4329  -5.9973

          k = 0.0625 0.1804 0.0000 ( 15721 PWs)   bands (ev):

   -21.2297  -9.2027  -7.5650  -6.6518

          k = 0.0625 0.2526 0.0000 ( 15762 PWs)   bands (ev):

   -20.6823  -9.0149  -8.5580  -7.3595

          k = 0.0625 0.3248 0.0000 ( 15798 PWs)   bands (ev):

   -19.9587 -10.6124  -8.0033  -7.7203

          k = 0.0625 0.3969 0.0000 ( 15825 PWs)   bands (ev):

   -19.0663 -12.2349  -8.5219  -6.7226

          k = 0.0625 0.4691 0.0000 ( 15821 PWs)   bands (ev):

   -18.0213 -13.7974  -8.8821  -5.6494

          k = 0.0625 0.5413 0.0000 ( 15805 PWs)   bands (ev):

   -16.9035 -15.1822  -9.0660  -4.7764

          k = 0.1250 0.2165 0.0000 ( 15750 PWs)   bands (ev):

   -20.7733  -8.6641  -8.5931  -7.5131

          k = 0.1250 0.2887 0.0000 ( 15783 PWs)   bands (ev):

   -20.1392  -9.8917  -8.3601  -7.9245

          k = 0.1250 0.3608 0.0000 ( 15797 PWs)   bands (ev):

   -19.3331 -11.3799  -9.0297  -7.0055

          k = 0.1250 0.4330 0.0000 ( 15808 PWs)   bands (ev):

   -18.3661 -12.9128  -9.5082  -5.9556

          k = 0.1250 0.5052 0.0000 ( 15822 PWs)   bands (ev):

   -17.2696 -14.3753  -9.7966  -4.9164

          k = 0.1250 0.5774 0.0000 ( 15790 PWs)   bands (ev):

   -16.4022 -15.3685  -9.8931  -4.3764

          k = 0.1875 0.3248 0.0000 ( 15804 PWs)   bands (ev):

   -19.4224 -10.8771  -9.4377  -7.1009

          k = 0.1875 0.3969 0.0000 ( 15827 PWs)   bands (ev):

   -18.5407 -12.0989 -10.2458  -6.1164

          k = 0.1875 0.4691 0.0000 ( 15821 PWs)   bands (ev):

   -17.5127 -13.4692 -10.7253  -5.0417

          k = 0.1875 0.5413 0.0000 ( 15795 PWs)   bands (ev):

   -16.4206 -14.7632 -10.9494  -4.1237

          k = 0.2500 0.4330 0.0000 ( 15824 PWs)   bands (ev):

   -17.5960 -12.8966 -11.3187  -5.0901

          k = 0.2500 0.5052 0.0000 ( 15797 PWs)   bands (ev):

   -16.5345 -13.9434 -11.9272  -4.0216

          k = 0.2500 0.5774 0.0000 ( 15788 PWs)   bands (ev):

   -15.6930 -14.8142 -12.1018  -3.3755

          k = 0.3125 0.5413 0.0000 ( 15790 PWs)   bands (ev):

   -15.5114 -14.5182 -12.7474  -2.9735

     highest occupied level (ev):    -2.9735

!    total energy              =     -36.88821621 Ry

     total all-electron energy =      -152.416411 Ry
     estimated scf accuracy    <          6.4E-11 Ry

     The total energy is the sum of the following terms:
     one-electron contribution =    -223.56916774 Ry
     hartree contribution      =     113.21739377 Ry
     xc contribution           =      -9.27231220 Ry
     ewald contribution        =      95.06982811 Ry
     one-center paw contrib.   =     -12.33395815 Ry

     convergence has been achieved in   9 iterations

     Writing output data file ./tmp/graphene1.save/

     init_run     :      9.24s CPU      9.45s WALL (       1 calls)
     electrons    :    134.88s CPU    136.38s WALL (       1 calls)

     Called by init_run:
     wfcinit      :      7.64s CPU      7.72s WALL (       1 calls)
     potinit      :      0.61s CPU      0.68s WALL (       1 calls)
     hinit0       :      0.64s CPU      0.65s WALL (       1 calls)

     Called by electrons:
     c_bands      :    110.32s CPU    110.77s WALL (       9 calls)
     sum_band     :     18.64s CPU     19.21s WALL (       9 calls)
     v_of_rho     :      3.07s CPU      3.17s WALL (      10 calls)
     newd         :      1.59s CPU      2.03s WALL (      10 calls)
     PAW_pot      :      1.26s CPU      1.27s WALL (      10 calls)
     mix_rho      :      0.52s CPU      0.55s WALL (       9 calls)

     Called by c_bands:
     init_us_2    :      2.73s CPU      2.75s WALL (     570 calls)
     cegterg      :    105.96s CPU    106.38s WALL (     270 calls)

     Called by *egterg:
     cdiaghg      :      0.08s CPU      0.08s WALL (    1015 calls)
     h_psi        :    100.06s CPU    100.47s WALL (    1045 calls)
     s_psi        :      3.92s CPU      3.93s WALL (    1045 calls)
     g_psi        :      0.44s CPU      0.45s WALL (     745 calls)

     Called by h_psi:
     h_psi:calbec :      3.82s CPU      3.84s WALL (    1045 calls)
     vloc_psi     :     91.97s CPU     92.33s WALL (    1045 calls)
     add_vuspsi   :      3.92s CPU      3.94s WALL (    1045 calls)

     General routines
     calbec       :      4.85s CPU      4.87s WALL (    1315 calls)
     fft          :      1.80s CPU      1.81s WALL (     110 calls)
     ffts         :      0.16s CPU      0.16s WALL (       9 calls)
     fftw         :     85.90s CPU     86.22s WALL (    8422 calls)

     Parallel routines

     PWSCF        :   2m24.27s CPU   2m26.07s WALL


   This run was terminated on:   7:38:28   4Aug2023            

=------------------------------------------------------------------------------=
   JOB DONE.
=------------------------------------------------------------------------------=
