
     Program PWSCF v.6.7MaX starts on  4Aug2023 at  7:27:32 

     This program is part of the open-source Quantum ESPRESSO suite
     for quantum simulation of materials; please cite
         "P. Giannozzi et al., J. Phys.:Condens. Matter 21 395502 (2009);
         "P. Giannozzi et al., J. Phys.:Condens. Matter 29 465901 (2017);
          URL http://www.quantum-espresso.org", 
     in publications or presentations arising from this work. More details at
     http://www.quantum-espresso.org/quote

     Parallel version (MPI), running on     1 processors

     MPI processes distributed on     1 nodes
     Waiting for input...
     Reading input from standard input

     Current dimensions of program PWSCF are:
     Max number of different atomic species (ntypx) = 10
     Max number of k-points (npk) =  40000
     Max angular momentum in pseudopotentials (lmaxx) =  3
     file C.pbe-n-kjpaw_psl.1.0.0.UPF: wavefunction(s)  2S 2P renormalized

     Subspace diagonalization in iterative solution of the eigenvalue problem:
     a serial algorithm will be used


     G-vector sticks info
     --------------------
     sticks:   dense  smooth     PW     G-vecs:    dense   smooth      PW
     Sum         301     301     91                34083    34083    5897



     bravais-lattice index     =           12
     lattice parameter (alat)  =       4.6620  a.u.
     unit-cell volume          =     711.3700 (a.u.)^3
     number of atoms/cell      =            2
     number of atomic types    =            1
     number of electrons       =         8.00
     number of Kohn-Sham states=            4
     kinetic-energy cutoff     =      50.0000  Ry
     charge density cutoff     =     200.0000  Ry
     scf convergence threshold =      1.0E-10
     mixing beta               =       0.5000
     number of iterations used =            8  plain     mixing
     Exchange-correlation= SLA  PW   PBX  PBC
                           (   1   4   3   4   0   0   0)

     celldm(1)=   4.661954  celldm(2)=   1.000000  celldm(3)=   8.107013
     celldm(4)=  -0.500000  celldm(5)=   0.000000  celldm(6)=   0.000000

     crystal axes: (cart. coord. in units of alat)
               a(1) = (   1.000000   0.000000   0.000000 )  
               a(2) = (  -0.500000   0.866025   0.000000 )  
               a(3) = (   0.000000   0.000000   8.107013 )  

     reciprocal axes: (cart. coord. in units 2 pi/alat)
               b(1) = (  1.000000  0.577350 -0.000000 )  
               b(2) = (  0.000000  1.154701  0.000000 )  
               b(3) = (  0.000000 -0.000000  0.123350 )  


     PseudoPot. # 1 for C  read from file:
     ./Pseudo/C.pbe-n-kjpaw_psl.1.0.0.UPF
     MD5 check sum: ecdf03482cb4269f2fcfa842d572f30f
     Pseudo is Projector augmented-wave + core cor, Zval =  4.0
     Generated using &quot;atomic&quot; code by A. Dal Corso  v.6.3
     Shape of augmentation charge: PSQ
     Using radial grid of 1073 points,  4 beta functions with: 
                l(1) =   0
                l(2) =   0
                l(3) =   1
                l(4) =   1
     Q(r) pseudized with 0 coefficients 


     atomic species   valence    mass     pseudopotential
        C              4.00    12.01070     C ( 1.00)

     24 Sym. Ops., with inversion, found (18 have fractional translation)



   Cartesian axes

     site n.     atom                  positions (alat units)
         1           C   tau(   1) = (   0.0000000   0.0000000   2.0267531  )
         2           C   tau(   2) = (  -0.0000000   0.5773503   2.0267531  )

     number of k points=    30
                       cart. coord. in units 2pi/alat
        k(    1) = (   0.0000000   0.0000000   0.0000000), wk =   0.0078125
        k(    2) = (   0.0000000   0.0721688   0.0000000), wk =   0.0468750
        k(    3) = (   0.0000000   0.1443376   0.0000000), wk =   0.0468750
        k(    4) = (   0.0000000   0.2165064   0.0000000), wk =   0.0468750
        k(    5) = (   0.0000000   0.2886751   0.0000000), wk =   0.0468750
        k(    6) = (   0.0000000   0.3608439   0.0000000), wk =   0.0468750
        k(    7) = (   0.0000000   0.4330127   0.0000000), wk =   0.0468750
        k(    8) = (   0.0000000   0.5051815   0.0000000), wk =   0.0468750
        k(    9) = (   0.0000000  -0.5773503   0.0000000), wk =   0.0234375
        k(   10) = (   0.0625000   0.1082532   0.0000000), wk =   0.0468750
        k(   11) = (   0.0625000   0.1804220   0.0000000), wk =   0.0937500
        k(   12) = (   0.0625000   0.2525907   0.0000000), wk =   0.0937500
        k(   13) = (   0.0625000   0.3247595   0.0000000), wk =   0.0937500
        k(   14) = (   0.0625000   0.3969283   0.0000000), wk =   0.0937500
        k(   15) = (   0.0625000   0.4690971   0.0000000), wk =   0.0937500
        k(   16) = (   0.0625000   0.5412659   0.0000000), wk =   0.0937500
        k(   17) = (   0.1250000   0.2165064   0.0000000), wk =   0.0468750
        k(   18) = (   0.1250000   0.2886751   0.0000000), wk =   0.0937500
        k(   19) = (   0.1250000   0.3608439   0.0000000), wk =   0.0937500
        k(   20) = (   0.1250000   0.4330127   0.0000000), wk =   0.0937500
        k(   21) = (   0.1250000   0.5051815   0.0000000), wk =   0.0937500
        k(   22) = (   0.1250000   0.5773503   0.0000000), wk =   0.0468750
        k(   23) = (   0.1875000   0.3247595   0.0000000), wk =   0.0468750
        k(   24) = (   0.1875000   0.3969283   0.0000000), wk =   0.0937500
        k(   25) = (   0.1875000   0.4690971   0.0000000), wk =   0.0937500
        k(   26) = (   0.1875000   0.5412659   0.0000000), wk =   0.0937500
        k(   27) = (   0.2500000   0.4330127   0.0000000), wk =   0.0468750
        k(   28) = (   0.2500000   0.5051815   0.0000000), wk =   0.0937500
        k(   29) = (   0.2500000   0.5773503   0.0000000), wk =   0.0468750
        k(   30) = (   0.3125000   0.5412659   0.0000000), wk =   0.0468750

     Dense  grid:    34083 G-vectors     FFT dimensions: (  24,  24, 180)

     Estimated max dynamical RAM per process >      54.09 MB

     Check: negative core charge=   -0.000020

     Initial potential from superposition of free atoms

     starting charge    7.99992, renormalised to    8.00000

     negative rho (up, down):  7.698E-05 0.000E+00
     Starting wfcs are    8 randomized atomic wfcs
     Checking if some PAW data can be deallocated... 

     total cpu time spent up to now is        2.0 secs

     Self-consistent Calculation

     iteration #  1     ecut=    50.00 Ry     beta= 0.50
     Davidson diagonalization with overlap
     ethr =  1.00E-02,  avg # of iterations =  2.0

     negative rho (up, down):  9.340E-05 0.000E+00

     total cpu time spent up to now is        4.4 secs

     total energy              =     -36.88335858 Ry
     estimated scf accuracy    <       0.18454780 Ry

     iteration #  2     ecut=    50.00 Ry     beta= 0.50
     Davidson diagonalization with overlap
     ethr =  2.31E-03,  avg # of iterations =  1.7

     negative rho (up, down):  2.148E-04 0.000E+00

     total cpu time spent up to now is        6.8 secs

     total energy              =     -36.88331770 Ry
     estimated scf accuracy    <       0.02130366 Ry

     iteration #  3     ecut=    50.00 Ry     beta= 0.50
     Davidson diagonalization with overlap
     ethr =  2.66E-04,  avg # of iterations =  2.0

     negative rho (up, down):  2.484E-04 0.000E+00

     total cpu time spent up to now is        9.3 secs

     total energy              =     -36.88754024 Ry
     estimated scf accuracy    <       0.00078100 Ry

     iteration #  4     ecut=    50.00 Ry     beta= 0.50
     Davidson diagonalization with overlap
     ethr =  9.76E-06,  avg # of iterations =  2.0

     negative rho (up, down):  2.615E-04 0.000E+00

     total cpu time spent up to now is       11.9 secs

     total energy              =     -36.88756163 Ry
     estimated scf accuracy    <       0.00031795 Ry

     iteration #  5     ecut=    50.00 Ry     beta= 0.50
     Davidson diagonalization with overlap
     ethr =  3.97E-06,  avg # of iterations =  2.0

     negative rho (up, down):  2.607E-04 0.000E+00

     total cpu time spent up to now is       14.5 secs

     total energy              =     -36.88762742 Ry
     estimated scf accuracy    <       0.00000416 Ry

     iteration #  6     ecut=    50.00 Ry     beta= 0.50
     Davidson diagonalization with overlap
     ethr =  5.20E-08,  avg # of iterations =  3.5

     negative rho (up, down):  2.605E-04 0.000E+00

     total cpu time spent up to now is       17.3 secs

     total energy              =     -36.88763011 Ry
     estimated scf accuracy    <       0.00000005 Ry

     iteration #  7     ecut=    50.00 Ry     beta= 0.50
     Davidson diagonalization with overlap
     ethr =  6.67E-10,  avg # of iterations =  4.6

     negative rho (up, down):  2.605E-04 0.000E+00

     total cpu time spent up to now is       20.9 secs

     total energy              =     -36.88763019 Ry
     estimated scf accuracy    <          1.1E-09 Ry

     iteration #  8     ecut=    50.00 Ry     beta= 0.50
     Davidson diagonalization with overlap
     ethr =  1.36E-11,  avg # of iterations =  3.3

     negative rho (up, down):  2.604E-04 0.000E+00

     total cpu time spent up to now is       23.4 secs

     total energy              =     -36.88763019 Ry
     estimated scf accuracy    <          8.8E-10 Ry

     iteration #  9     ecut=    50.00 Ry     beta= 0.50
     Davidson diagonalization with overlap
     ethr =  1.09E-11,  avg # of iterations =  2.0

     negative rho (up, down):  2.604E-04 0.000E+00

     total cpu time spent up to now is       26.1 secs

     End of self-consistent calculation

          k = 0.0000 0.0000 0.0000 (  4213 PWs)   bands (ev):

   -21.8809  -9.9755  -5.4164  -5.4164

          k = 0.0000 0.0722 0.0000 (  4233 PWs)   bands (ev):

   -21.7888  -9.8653  -5.7907  -5.6124

          k = 0.0000 0.1443 0.0000 (  4251 PWs)   bands (ev):

   -21.5128  -9.5362  -6.7979  -6.1185

          k = 0.0000 0.2165 0.0000 (  4267 PWs)   bands (ev):

   -21.0548  -8.9936  -8.2034  -6.7696

          k = 0.0000 0.2887 0.0000 (  4237 PWs)   bands (ev):

   -20.4179  -9.8025  -8.2484  -7.4254

          k = 0.0000 0.3608 0.0000 (  4269 PWs)   bands (ev):

   -19.6075 -11.4571  -7.9966  -7.3234

          k = 0.0000 0.4330 0.0000 (  4257 PWs)   bands (ev):

   -18.6338 -13.0775  -8.4315  -6.2703

          k = 0.0000 0.5052 0.0000 (  4273 PWs)   bands (ev):

   -17.5271 -14.5878  -8.7019  -5.2409

          k = 0.0000-0.5774 0.0000 (  4268 PWs)   bands (ev):

   -16.6473 -15.6046  -8.7934  -4.7196

          k = 0.0625 0.1083 0.0000 (  4251 PWs)   bands (ev):

   -21.6047  -9.6456  -6.4405  -6.0049

          k = 0.0625 0.1804 0.0000 (  4250 PWs)   bands (ev):

   -21.2377  -9.2096  -7.5726  -6.6593

          k = 0.0625 0.2526 0.0000 (  4244 PWs)   bands (ev):

   -20.6902  -9.0223  -8.5649  -7.3669

          k = 0.0625 0.3248 0.0000 (  4248 PWs)   bands (ev):

   -19.9665 -10.6197  -8.0106  -7.7273

          k = 0.0625 0.3969 0.0000 (  4261 PWs)   bands (ev):

   -19.0740 -12.2421  -8.5292  -6.7295

          k = 0.0625 0.4691 0.0000 (  4259 PWs)   bands (ev):

   -18.0289 -13.8045  -8.8893  -5.6562

          k = 0.0625 0.5413 0.0000 (  4274 PWs)   bands (ev):

   -16.9113 -15.1891  -9.0732  -4.7831

          k = 0.1250 0.2165 0.0000 (  4245 PWs)   bands (ev):

   -20.7813  -8.6710  -8.6006  -7.5204

          k = 0.1250 0.2887 0.0000 (  4239 PWs)   bands (ev):

   -20.1470  -9.8992  -8.3673  -7.9315

          k = 0.1250 0.3608 0.0000 (  4238 PWs)   bands (ev):

   -19.3408 -11.3873  -9.0368  -7.0124

          k = 0.1250 0.4330 0.0000 (  4252 PWs)   bands (ev):

   -18.3737 -12.9201  -9.5154  -5.9624

          k = 0.1250 0.5052 0.0000 (  4252 PWs)   bands (ev):

   -17.2772 -14.3824  -9.8037  -4.9232

          k = 0.1250 0.5774 0.0000 (  4252 PWs)   bands (ev):

   -16.4103 -15.3752  -9.9002  -4.3831

          k = 0.1875 0.3248 0.0000 (  4235 PWs)   bands (ev):

   -19.4301 -10.8846  -9.4447  -7.1079

          k = 0.1875 0.3969 0.0000 (  4233 PWs)   bands (ev):

   -18.5484 -12.1063 -10.2527  -6.1233

          k = 0.1875 0.4691 0.0000 (  4247 PWs)   bands (ev):

   -17.5203 -13.4765 -10.7322  -5.0486

          k = 0.1875 0.5413 0.0000 (  4244 PWs)   bands (ev):

   -16.4284 -14.7702 -10.9564  -4.1305

          k = 0.2500 0.4330 0.0000 (  4235 PWs)   bands (ev):

   -17.6036 -12.9041 -11.3254  -5.0970

          k = 0.2500 0.5052 0.0000 (  4226 PWs)   bands (ev):

   -16.5421 -13.9509 -11.9339  -4.0285

          k = 0.2500 0.5774 0.0000 (  4245 PWs)   bands (ev):

   -15.7009 -14.8213 -12.1084  -3.3823

          k = 0.3125 0.5413 0.0000 (  4225 PWs)   bands (ev):

   -15.5191 -14.5259 -12.7536  -2.9804

     highest occupied level (ev):    -2.9804

!    total energy              =     -36.88763019 Ry

     total all-electron energy =      -152.415825 Ry
     estimated scf accuracy    <          2.9E-11 Ry

     The total energy is the sum of the following terms:
     one-electron contribution =    -223.56422844 Ry
     hartree contribution      =     113.21217770 Ry
     xc contribution           =      -9.27177576 Ry
     ewald contribution        =      95.06982805 Ry
     one-center paw contrib.   =     -12.33363175 Ry

     convergence has been achieved in   9 iterations

     Writing output data file ./tmp/graphene1.save/

     init_run     :      1.86s CPU      1.91s WALL (       1 calls)
     electrons    :     23.97s CPU     24.10s WALL (       1 calls)

     Called by init_run:
     wfcinit      :      1.25s CPU      1.26s WALL (       1 calls)
     potinit      :      0.23s CPU      0.25s WALL (       1 calls)
     hinit0       :      0.30s CPU      0.30s WALL (       1 calls)

     Called by electrons:
     c_bands      :     18.34s CPU     18.43s WALL (       9 calls)
     sum_band     :      3.40s CPU      3.43s WALL (       9 calls)
     v_of_rho     :      0.87s CPU      0.89s WALL (      10 calls)
     newd         :      0.31s CPU      0.33s WALL (      10 calls)
     PAW_pot      :      1.15s CPU      1.16s WALL (      10 calls)
     mix_rho      :      0.09s CPU      0.09s WALL (       9 calls)

     Called by c_bands:
     init_us_2    :      0.69s CPU      0.71s WALL (     570 calls)
     cegterg      :     17.26s CPU     17.35s WALL (     270 calls)

     Called by *egterg:
     cdiaghg      :      0.06s CPU      0.06s WALL (     962 calls)
     h_psi        :     15.59s CPU     15.65s WALL (     992 calls)
     s_psi        :      0.84s CPU      0.85s WALL (     992 calls)
     g_psi        :      0.11s CPU      0.11s WALL (     692 calls)

     Called by h_psi:
     h_psi:calbec :      0.82s CPU      0.82s WALL (     992 calls)
     vloc_psi     :     13.86s CPU     13.91s WALL (     992 calls)
     add_vuspsi   :      0.85s CPU      0.86s WALL (     992 calls)

     General routines
     calbec       :      1.08s CPU      1.08s WALL (    1262 calls)
     fft          :      0.45s CPU      0.45s WALL (     110 calls)
     ffts         :      0.04s CPU      0.04s WALL (       9 calls)
     fftw         :     13.73s CPU     13.78s WALL (    8090 calls)

     Parallel routines

     PWSCF        :     25.94s CPU     26.14s WALL


   This run was terminated on:   7:27:58   4Aug2023            

=------------------------------------------------------------------------------=
   JOB DONE.
=------------------------------------------------------------------------------=
