
     Program BANDS v.6.7MaX starts on  4Aug2023 at 12:16:20 

     This program is part of the open-source Quantum ESPRESSO suite
     for quantum simulation of materials; please cite
         "P. Giannozzi et al., J. Phys.:Condens. Matter 21 395502 (2009);
         "P. Giannozzi et al., J. Phys.:Condens. Matter 29 465901 (2017);
          URL http://www.quantum-espresso.org", 
     in publications or presentations arising from this work. More details at
     http://www.quantum-espresso.org/quote

     Parallel version (MPI), running on     1 processors

     MPI processes distributed on     1 nodes

     Reading xml data from directory:

     ./tmp/graphene1.save/
     file C.pbe-n-kjpaw_psl.1.0.0.UPF: wavefunction(s)  2S 2P renormalized

     IMPORTANT: XC functional enforced from input :
     Exchange-correlation= PBE
                           (   1   4   3   4   0   0   0)
     Any further DFT definition will be discarded
     Please, verify this is what you really want


     G-vector sticks info
     --------------------
     sticks:   dense  smooth     PW     G-vecs:    dense   smooth      PW
     Sum         595     595    187                96043    96043   15341


     Check: negative core charge=   -0.000002

     negative rho (up, down):  1.264E-04 0.000E+00
     Reading collected, re-writing distributed wavefunctions
     high-symmetry point:  0.0000 0.0000 0.0000   x coordinate   0.0000
     high-symmetry point:  0.3333 0.5773 0.0000   x coordinate   0.6667
     high-symmetry point:  0.5000 0.2887 0.0000   x coordinate   1.0000
     high-symmetry point:  0.0000 0.0000 0.0000   x coordinate   1.5773

     Plottable bands (eV) written to file graphene.bands.gnu
     Bands written to file graphene.bands

 **************************************************************************

                    xk=(   0.00000,   0.00000,   0.00000  )

     point group D_6h(6/mmm)
     there are 12 classes
     the character table:

       E     2C6   2C3   C2    3C2'  3C2'' i     2S3   2S6   s_h   3s_d  3s_v 
A_1g   1.00  1.00  1.00  1.00  1.00  1.00  1.00  1.00  1.00  1.00  1.00  1.00
A_2g   1.00  1.00  1.00  1.00 -1.00 -1.00  1.00  1.00  1.00  1.00 -1.00 -1.00
B_1g   1.00 -1.00  1.00 -1.00  1.00 -1.00  1.00 -1.00  1.00 -1.00  1.00 -1.00
B_2g   1.00 -1.00  1.00 -1.00 -1.00  1.00  1.00 -1.00  1.00 -1.00 -1.00  1.00
E_1g   2.00  1.00 -1.00 -2.00  0.00  0.00  2.00  1.00 -1.00 -2.00  0.00  0.00
E_2g   2.00 -1.00 -1.00  2.00  0.00  0.00  2.00 -1.00 -1.00  2.00  0.00  0.00
A_1u   1.00  1.00  1.00  1.00  1.00  1.00 -1.00 -1.00 -1.00 -1.00 -1.00 -1.00
A_2u   1.00  1.00  1.00  1.00 -1.00 -1.00 -1.00 -1.00 -1.00 -1.00  1.00  1.00
B_1u   1.00 -1.00  1.00 -1.00  1.00 -1.00 -1.00  1.00 -1.00  1.00 -1.00  1.00
B_2u   1.00 -1.00  1.00 -1.00 -1.00  1.00 -1.00  1.00 -1.00  1.00  1.00 -1.00
E_1u   2.00  1.00 -1.00 -2.00  0.00  0.00 -2.00 -1.00  1.00  2.00  0.00  0.00
E_2u   2.00 -1.00 -1.00  2.00  0.00  0.00 -2.00  1.00  1.00 -2.00  0.00  0.00

     the symmetry operations in each class and the name of the first element:

     E        1
                                                                 
     2C6      5    6
                                                                 
     2C3      7    8
                                                                 
     C2       2
                                                                 
     3C2'     4   12   11
                                                                 
     3C2''    3    9   10
                                                                 
     i       13
                                                                 
     2S3     17   18
                                                                 
     2S6     19   20
                                                                 
     s_h     14
                                                                 
     3s_d    16   24   23
                                                                 
     3s_v    15   21   22
                                                                 

     Band symmetry, D_6h(6/mmm) point group:

     e(  1 -  1) =    -21.87261  eV     1   --> A_1g           
     e(  2 -  2) =     -9.96849  eV     1   --> A_2u           
     e(  3 -  4) =     -5.40844  eV     2   --> E_2g           
     e(  5 -  5) =      0.84832  eV     1   --> A_1g           
     e(  6 -  6) =      1.51507  eV     1   --> A_2u           
     e(  7 -  7) =      1.64455  eV     1   --> A_1g           
     e(  8 -  8) =      2.65452  eV     1   --> A_2u           

 **************************************************************************

 **************************************************************************

                    xk=(   0.00667,   0.01155,   0.00000  )

     point group C_2v (mm2) 
     there are  4 classes
     the character table:

       E     C2    s_v   s_v' 
A_1    1.00  1.00  1.00  1.00
A_2    1.00  1.00 -1.00 -1.00
B_1    1.00 -1.00  1.00 -1.00
B_2    1.00 -1.00 -1.00  1.00

     the symmetry operations in each class and the name of the first element:

     E        1
                                                                 
     C2       2
                                                                 
     s_v      3
                                                                 
     s_v'     4
                                                                 

     Band symmetry, C_2v (mm2)  point group:

     e(  1 -  1) =    -21.86946  eV     1   --> A_1  D_1  S_1  
     e(  2 -  2) =     -9.96472  eV     1   --> B_2  D_4  S_4  
     e(  3 -  3) =     -5.42159  eV     1   --> B_1  D_3  S_3  
     e(  4 -  4) =     -5.41541  eV     1   --> A_1  D_1  S_1  
     e(  5 -  5) =      0.85261  eV     1   --> A_1  D_1  S_1  
     e(  6 -  6) =      1.51942  eV     1   --> B_2  D_4  S_4  
     e(  7 -  7) =      1.64893  eV     1   --> A_1  D_1  S_1  
     e(  8 -  8) =      2.65886  eV     1   --> B_2  D_4  S_4  

 **************************************************************************

 **************************************************************************

                    xk=(   0.01333,   0.02309,   0.00000  )

     Band symmetry, C_2v (mm2)  point group:

     e(  1 -  1) =    -21.86002  eV     1   --> A_1  D_1  S_1  
     e(  2 -  2) =     -9.95342  eV     1   --> B_2  D_4  S_4  
     e(  3 -  3) =     -5.46079  eV     1   --> B_1  D_3  S_3  
     e(  4 -  4) =     -5.43628  eV     1   --> A_1  D_1  S_1  
     e(  5 -  5) =      0.86546  eV     1   --> A_1  D_1  S_1  
     e(  6 -  6) =      1.53246  eV     1   --> B_2  D_4  S_4  
     e(  7 -  7) =      1.66205  eV     1   --> A_1  D_1  S_1  
     e(  8 -  8) =      2.67185  eV     1   --> B_2  D_4  S_4  

 **************************************************************************

 **************************************************************************

                    xk=(   0.02000,   0.03464,   0.00000  )

     Band symmetry, C_2v (mm2)  point group:

     e(  1 -  1) =    -21.84429  eV     1   --> A_1  D_1  S_1  
     e(  2 -  2) =     -9.93460  eV     1   --> B_2  D_4  S_4  
     e(  3 -  3) =     -5.52532  eV     1   --> B_1  D_3  S_3  
     e(  4 -  4) =     -5.47093  eV     1   --> A_1  D_1  S_1  
     e(  5 -  5) =      0.88689  eV     1   --> A_1  D_1  S_1  
     e(  6 -  6) =      1.55419  eV     1   --> B_2  D_4  S_4  
     e(  7 -  7) =      1.68392  eV     1   --> A_1  D_1  S_1  
     e(  8 -  8) =      2.69352  eV     1   --> B_2  D_4  S_4  

 **************************************************************************

 **************************************************************************

                    xk=(   0.02667,   0.04619,   0.00000  )

     Band symmetry, C_2v (mm2)  point group:

     e(  1 -  1) =    -21.82227  eV     1   --> A_1  D_1  S_1  
     e(  2 -  2) =     -9.90825  eV     1   --> B_2  D_4  S_4  
     e(  3 -  3) =     -5.61400  eV     1   --> B_1  D_3  S_3  
     e(  4 -  4) =     -5.51917  eV     1   --> A_1  D_1  S_1  
     e(  5 -  5) =      0.91689  eV     1   --> A_1  D_1  S_1  
     e(  6 -  6) =      1.58462  eV     1   --> B_2  D_4  S_4  
     e(  7 -  7) =      1.71453  eV     1   --> A_1  D_1  S_1  
     e(  8 -  8) =      2.72384  eV     1   --> B_2  D_4  S_4  

 **************************************************************************

 **************************************************************************

                    xk=(   0.03333,   0.05773,   0.00000  )

     Band symmetry, C_2v (mm2)  point group:

     e(  1 -  1) =    -21.79397  eV     1   --> A_1  D_1  S_1  
     e(  2 -  2) =     -9.87441  eV     1   --> B_2  D_4  S_4  
     e(  3 -  3) =     -5.72536  eV     1   --> B_1  D_3  S_3  
     e(  4 -  4) =     -5.58074  eV     1   --> A_1  D_1  S_1  
     e(  5 -  5) =      0.95546  eV     1   --> A_1  D_1  S_1  
     e(  6 -  6) =      1.62374  eV     1   --> B_2  D_4  S_4  
     e(  7 -  7) =      1.75390  eV     1   --> A_1  D_1  S_1  
     e(  8 -  8) =      2.76283  eV     1   --> B_2  D_4  S_4  

 **************************************************************************

 **************************************************************************

                    xk=(   0.04000,   0.06928,   0.00000  )

     Band symmetry, C_2v (mm2)  point group:

     e(  1 -  1) =    -21.75939  eV     1   --> A_1  D_1  S_1  
     e(  2 -  2) =     -9.83307  eV     1   --> B_2  D_4  S_4  
     e(  3 -  3) =     -5.85761  eV     1   --> B_1  D_3  S_3  
     e(  4 -  4) =     -5.65529  eV     1   --> A_1  D_1  S_1  
     e(  5 -  5) =      1.00260  eV     1   --> A_1  D_1  S_1  
     e(  6 -  6) =      1.67154  eV     1   --> B_2  D_4  S_4  
     e(  7 -  7) =      1.80201  eV     1   --> A_1  D_1  S_1  
     e(  8 -  8) =      2.81047  eV     1   --> B_2  D_4  S_4  

 **************************************************************************

 **************************************************************************

                    xk=(   0.04667,   0.08083,   0.00000  )

     Band symmetry, C_2v (mm2)  point group:

     e(  1 -  1) =    -21.71853  eV     1   --> A_1  D_1  S_1  
     e(  2 -  2) =     -9.78427  eV     1   --> B_2  D_4  S_4  
     e(  3 -  3) =     -6.00886  eV     1   --> B_1  D_3  S_3  
     e(  4 -  4) =     -5.74242  eV     1   --> A_1  D_1  S_1  
     e(  5 -  5) =      1.05833  eV     1   --> A_1  D_1  S_1  
     e(  6 -  6) =      1.72803  eV     1   --> B_2  D_4  S_4  
     e(  7 -  7) =      1.85888  eV     1   --> A_1  D_1  S_1  
     e(  8 -  8) =      2.86676  eV     1   --> B_2  D_4  S_4  

 **************************************************************************

 **************************************************************************

                    xk=(   0.05333,   0.09238,   0.00000  )

     Band symmetry, C_2v (mm2)  point group:

     e(  1 -  1) =    -21.67142  eV     1   --> A_1  D_1  S_1  
     e(  2 -  2) =     -9.72802  eV     1   --> B_2  D_4  S_4  
     e(  3 -  3) =     -6.17710  eV     1   --> B_1  D_3  S_3  
     e(  4 -  4) =     -5.84167  eV     1   --> A_1  D_1  S_1  
     e(  5 -  5) =      1.12262  eV     1   --> A_1  D_1  S_1  
     e(  6 -  6) =      1.79320  eV     1   --> B_2  D_4  S_4  
     e(  7 -  7) =      1.92449  eV     1   --> A_1  D_1  S_1  
     e(  8 -  8) =      2.93171  eV     1   --> B_2  D_4  S_4  

 **************************************************************************

 **************************************************************************

                    xk=(   0.06000,   0.10392,   0.00000  )

     Band symmetry, C_2v (mm2)  point group:

     e(  1 -  1) =    -21.61805  eV     1   --> A_1  D_1  S_1  
     e(  2 -  2) =     -9.66435  eV     1   --> B_2  D_4  S_4  
     e(  3 -  3) =     -6.36037  eV     1   --> B_1  D_3  S_3  
     e(  4 -  4) =     -5.95253  eV     1   --> A_1  D_1  S_1  
     e(  5 -  5) =      1.19550  eV     1   --> A_1  D_1  S_1  
     e(  6 -  6) =      1.86705  eV     1   --> B_2  D_4  S_4  
     e(  7 -  7) =      1.99885  eV     1   --> A_1  D_1  S_1  
     e(  8 -  8) =      3.00529  eV     1   --> B_2  D_4  S_4  

 **************************************************************************

 **************************************************************************

                    xk=(   0.06667,   0.11547,   0.00000  )

     Band symmetry, C_2v (mm2)  point group:

     e(  1 -  1) =    -21.55844  eV     1   --> A_1  D_1  S_1  
     e(  2 -  2) =     -9.59331  eV     1   --> B_2  D_4  S_4  
     e(  3 -  3) =     -6.55672  eV     1   --> B_1  D_3  S_3  
     e(  4 -  4) =     -6.07442  eV     1   --> A_1  D_1  S_1  
     e(  5 -  5) =      1.27695  eV     1   --> A_1  D_1  S_1  
     e(  6 -  6) =      1.94956  eV     1   --> B_2  D_4  S_4  
     e(  7 -  7) =      2.08197  eV     1   --> A_1  D_1  S_1  
     e(  8 -  8) =      3.08752  eV     1   --> B_2  D_4  S_4  

 **************************************************************************

 **************************************************************************

                    xk=(   0.07333,   0.12702,   0.00000  )

     Band symmetry, C_2v (mm2)  point group:

     e(  1 -  1) =    -21.49261  eV     1   --> A_1  D_1  S_1  
     e(  2 -  2) =     -9.51491  eV     1   --> B_2  D_4  S_4  
     e(  3 -  3) =     -6.76434  eV     1   --> B_1  D_3  S_3  
     e(  4 -  4) =     -6.20674  eV     1   --> A_1  D_1  S_1  
     e(  5 -  5) =      1.36697  eV     1   --> A_1  D_1  S_1  
     e(  6 -  6) =      2.04074  eV     1   --> B_2  D_4  S_4  
     e(  7 -  7) =      2.17384  eV     1   --> A_1  D_1  S_1  
     e(  8 -  8) =      3.17837  eV     1   --> B_2  D_4  S_4  

 **************************************************************************

 **************************************************************************

                    xk=(   0.08000,   0.13856,   0.00000  )

     Band symmetry, C_2v (mm2)  point group:

     e(  1 -  1) =    -21.42056  eV     1   --> A_1  D_1  S_1  
     e(  2 -  2) =     -9.42922  eV     1   --> B_2  D_4  S_4  
     e(  3 -  3) =     -6.98151  eV     1   --> B_1  D_3  S_3  
     e(  4 -  4) =     -6.34886  eV     1   --> A_1  D_1  S_1  
     e(  5 -  5) =      1.46557  eV     1   --> A_1  D_1  S_1  
     e(  6 -  6) =      2.14058  eV     1   --> B_2  D_4  S_4  
     e(  7 -  7) =      2.27446  eV     1   --> A_1  D_1  S_1  
     e(  8 -  8) =      3.27784  eV     1   --> B_2  D_4  S_4  

 **************************************************************************

 **************************************************************************

                    xk=(   0.08667,   0.15011,   0.00000  )

     Band symmetry, C_2v (mm2)  point group:

     e(  1 -  1) =    -21.34231  eV     1   --> A_1  D_1  S_1  
     e(  2 -  2) =     -9.33627  eV     1   --> B_2  D_4  S_4  
     e(  3 -  3) =     -7.20667  eV     1   --> B_1  D_3  S_3  
     e(  4 -  4) =     -6.50012  eV     1   --> A_1  D_1  S_1  
     e(  5 -  5) =      1.57274  eV     1   --> A_1  D_1  S_1  
     e(  6 -  6) =      2.24907  eV     1   --> B_2  D_4  S_4  
     e(  7 -  7) =      2.38383  eV     1   --> A_1  D_1  S_1  
     e(  8 -  8) =      3.38591  eV     1   --> B_2  D_4  S_4  

 **************************************************************************

 **************************************************************************

                    xk=(   0.09333,   0.16166,   0.00000  )

     Band symmetry, C_2v (mm2)  point group:

     e(  1 -  1) =    -21.25788  eV     1   --> A_1  D_1  S_1  
     e(  2 -  2) =     -9.23611  eV     1   --> B_2  D_4  S_4  
     e(  3 -  3) =     -7.43840  eV     1   --> B_1  D_3  S_3  
     e(  4 -  4) =     -6.65983  eV     1   --> A_1  D_1  S_1  
     e(  5 -  5) =      1.68847  eV     1   --> A_1  D_1  S_1  
     e(  6 -  6) =      2.36619  eV     1   --> B_2  D_4  S_4  
     e(  7 -  7) =      2.50196  eV     1   --> A_1  D_1  S_1  
     e(  8 -  8) =      3.50259  eV     1   --> B_2  D_4  S_4  

 **************************************************************************

 **************************************************************************

                    xk=(   0.10000,   0.17320,   0.00000  )

     Band symmetry, C_2v (mm2)  point group:

     e(  1 -  1) =    -21.16730  eV     1   --> A_1  D_1  S_1  
     e(  2 -  2) =     -9.12881  eV     1   --> B_2  D_4  S_4  
     e(  3 -  3) =     -7.67539  eV     1   --> B_1  D_3  S_3  
     e(  4 -  4) =     -6.82731  eV     1   --> A_1  D_1  S_1  
     e(  5 -  5) =      1.81277  eV     1   --> A_1  D_1  S_1  
     e(  6 -  6) =      2.49194  eV     1   --> B_2  D_4  S_4  
     e(  7 -  7) =      2.62884  eV     1   --> A_1  D_1  S_1  
     e(  8 -  8) =      3.62784  eV     1   --> B_2  D_4  S_4  

 **************************************************************************

 **************************************************************************

                    xk=(   0.10667,   0.18475,   0.00000  )

     Band symmetry, C_2v (mm2)  point group:

     e(  1 -  1) =    -21.07058  eV     1   --> A_1  D_1  S_1  
     e(  2 -  2) =     -9.01443  eV     1   --> B_2  D_4  S_4  
     e(  3 -  3) =     -7.91651  eV     1   --> B_1  D_3  S_3  
     e(  4 -  4) =     -7.00186  eV     1   --> A_1  D_1  S_1  
     e(  5 -  5) =      1.94562  eV     1   --> A_1  D_1  S_1  
     e(  6 -  6) =      2.62630  eV     1   --> B_2  D_4  S_4  
     e(  7 -  7) =      2.76447  eV     1   --> A_1  D_1  S_1  
     e(  8 -  8) =      3.76166  eV     1   --> B_2  D_4  S_4  

 **************************************************************************

 **************************************************************************

                    xk=(   0.11333,   0.19630,   0.00000  )

     Band symmetry, C_2v (mm2)  point group:

     e(  1 -  1) =    -20.96775  eV     1   --> A_1  D_1  S_1  
     e(  2 -  2) =     -8.89304  eV     1   --> B_2  D_4  S_4  
     e(  3 -  3) =     -8.16070  eV     1   --> B_1  D_3  S_3  
     e(  4 -  4) =     -7.18280  eV     1   --> A_1  D_1  S_1  
     e(  5 -  5) =      2.08701  eV     1   --> A_1  D_1  S_1  
     e(  6 -  6) =      2.76926  eV     1   --> B_2  D_4  S_4  
     e(  7 -  7) =      2.90885  eV     1   --> A_1  D_1  S_1  
     e(  8 -  8) =      3.90402  eV     1   --> B_2  D_4  S_4  

 **************************************************************************

 **************************************************************************

                    xk=(   0.12000,   0.20784,   0.00000  )

     Band symmetry, C_2v (mm2)  point group:

     e(  1 -  1) =    -20.85883  eV     1   --> A_1  D_1  S_1  
     e(  2 -  2) =     -8.76473  eV     1   --> B_2  D_4  S_4  
     e(  3 -  3) =     -8.40706  eV     1   --> B_1  D_3  S_3  
     e(  4 -  4) =     -7.36945  eV     1   --> A_1  D_1  S_1  
     e(  5 -  5) =      2.23693  eV     1   --> A_1  D_1  S_1  
     e(  6 -  6) =      2.92079  eV     1   --> B_2  D_4  S_4  
     e(  7 -  7) =      3.06199  eV     1   --> A_1  D_1  S_1  
     e(  8 -  8) =      4.05490  eV     1   --> B_2  D_4  S_4  

 **************************************************************************

 **************************************************************************

                    xk=(   0.12667,   0.21939,   0.00000  )

     Band symmetry, C_2v (mm2)  point group:

     e(  1 -  1) =    -20.74386  eV     1   --> A_1  D_1  S_1  
     e(  2 -  2) =     -8.65476  eV     1   --> B_1  D_3  S_3  
     e(  3 -  3) =     -8.62958  eV     1   --> B_2  D_4  S_4  
     e(  4 -  4) =     -7.56112  eV     1   --> A_1  D_1  S_1  
     e(  5 -  5) =      2.39539  eV     1   --> A_1  D_1  S_1  
     e(  6 -  6) =      3.08088  eV     1   --> B_2  D_4  S_4  
     e(  7 -  7) =      3.22387  eV     1   --> A_1  D_1  S_1  
     e(  8 -  8) =      4.21428  eV     1   --> B_2  D_4  S_4  

 **************************************************************************

 **************************************************************************

                    xk=(   0.13333,   0.23094,   0.00000  )

     Band symmetry, C_2v (mm2)  point group:

     e(  1 -  1) =    -20.62288  eV     1   --> A_1  D_1  S_1  
     e(  2 -  2) =     -8.90307  eV     1   --> B_1  D_3  S_3  
     e(  3 -  3) =     -8.48768  eV     1   --> B_2  D_4  S_4  
     e(  4 -  4) =     -7.75716  eV     1   --> A_1  D_1  S_1  
     e(  5 -  5) =      2.56235  eV     1   --> A_1  D_1  S_1  
     e(  6 -  6) =      3.24949  eV     1   --> B_2  D_4  S_4  
     e(  7 -  7) =      3.39450  eV     1   --> A_1  D_1  S_1  
     e(  8 -  8) =      4.38212  eV     1   --> B_2  D_4  S_4  

 **************************************************************************

 **************************************************************************

                    xk=(   0.14000,   0.24248,   0.00000  )

     Band symmetry, C_2v (mm2)  point group:

     e(  1 -  1) =    -20.49590  eV     1   --> A_1  D_1  S_1  
     e(  2 -  2) =     -9.15136  eV     1   --> B_1  D_3  S_3  
     e(  3 -  3) =     -8.33915  eV     1   --> B_2  D_4  S_4  
     e(  4 -  4) =     -7.95694  eV     1   --> A_1  D_1  S_1  
     e(  5 -  5) =      2.73780  eV     1   --> A_1  D_1  S_1  
     e(  6 -  6) =      3.42661  eV     1   --> B_2  D_4  S_4  
     e(  7 -  7) =      3.57388  eV     1   --> A_1  D_1  S_1  
     e(  8 -  8) =      4.55838  eV     1   --> B_2  D_4  S_4  

 **************************************************************************

 **************************************************************************

                    xk=(   0.14667,   0.25403,   0.00000  )

     Band symmetry, C_2v (mm2)  point group:

     e(  1 -  1) =    -20.36299  eV     1   --> A_1  D_1  S_1  
     e(  2 -  2) =     -9.39904  eV     1   --> B_1  D_3  S_3  
     e(  3 -  3) =     -8.18410  eV     1   --> B_2  D_4  S_4  
     e(  4 -  4) =     -8.15985  eV     1   --> A_1  D_1  S_1  
     e(  5 -  5) =      2.92174  eV     1   --> A_1  D_1  S_1  
     e(  6 -  6) =      3.61218  eV     1   --> B_2  D_4  S_4  
     e(  7 -  7) =      3.76201  eV     1   --> A_1  D_1  S_1  
     e(  8 -  8) =      4.74302  eV     1   --> B_2  D_4  S_4  

 **************************************************************************

 **************************************************************************

                    xk=(   0.15333,   0.26558,   0.00000  )

     Band symmetry, C_2v (mm2)  point group:

     e(  1 -  1) =    -20.22417  eV     1   --> A_1  D_1  S_1  
     e(  2 -  2) =     -9.64560  eV     1   --> B_1  D_3  S_3  
     e(  3 -  3) =     -8.36528  eV     1   --> A_1  D_1  S_1  
     e(  4 -  4) =     -8.02266  eV     1   --> B_2  D_4  S_4  
     e(  5 -  5) =      3.11413  eV     1   --> A_1  D_1  S_1  
     e(  6 -  6) =      3.80616  eV     1   --> B_2  D_4  S_4  
     e(  7 -  7) =      3.95888  eV     1   --> A_1  D_1  S_1  
     e(  8 -  8) =      4.61044  eV     1   --> A_2  D_2  S_2  

 **************************************************************************

 **************************************************************************

                    xk=(   0.16000,   0.27713,   0.00000  )

     Band symmetry, C_2v (mm2)  point group:

     e(  1 -  1) =    -20.07951  eV     1   --> A_1  D_1  S_1  
     e(  2 -  2) =     -9.89061  eV     1   --> B_1  D_3  S_3  
     e(  3 -  3) =     -8.57266  eV     1   --> A_1  D_1  S_1  
     e(  4 -  4) =     -7.85497  eV     1   --> B_2  D_4  S_4  
     e(  5 -  5) =      3.31495  eV     1   --> A_1  D_1  S_1  
     e(  6 -  6) =      4.00850  eV     1   --> B_2  D_4  S_4  
     e(  7 -  7) =      4.16449  eV     1   --> A_1  D_1  S_1  
     e(  8 -  8) =      4.31371  eV     1   --> A_2  D_2  S_2  

 **************************************************************************

 **************************************************************************

                    xk=(   0.16667,   0.28867,   0.00000  )

     Band symmetry, C_2v (mm2)  point group:

     e(  1 -  1) =    -19.92905  eV     1   --> A_1  D_1  S_1  
     e(  2 -  2) =    -10.13364  eV     1   --> B_1  D_3  S_3  
     e(  3 -  3) =     -8.78145  eV     1   --> A_1  D_1  S_1  
     e(  4 -  4) =     -7.68119  eV     1   --> B_2  D_4  S_4  
     e(  5 -  5) =      3.52418  eV     1   --> A_1  D_1  S_1  
     e(  6 -  6) =      4.01631  eV     1   --> A_2  D_2  S_2  
     e(  7 -  7) =      4.21913  eV     1   --> B_2  D_4  S_4  
     e(  8 -  8) =      4.37884  eV     1   --> A_1  D_1  S_1  

 **************************************************************************

 **************************************************************************

                    xk=(   0.17333,   0.30022,   0.00000  )

     Band symmetry, C_2v (mm2)  point group:

     e(  1 -  1) =    -19.77286  eV     1   --> A_1  D_1  S_1  
     e(  2 -  2) =    -10.37435  eV     1   --> B_1  D_3  S_3  
     e(  3 -  3) =     -8.99113  eV     1   --> A_1  D_1  S_1  
     e(  4 -  4) =     -7.50149  eV     1   --> B_2  D_4  S_4  
     e(  5 -  5) =      3.71890  eV     1   --> A_2  D_2  S_2  
     e(  6 -  6) =      3.74178  eV     1   --> A_1  D_1  S_1  
     e(  7 -  7) =      4.43797  eV     1   --> B_2  D_4  S_4  
     e(  8 -  8) =      4.60193  eV     1   --> A_1  D_1  S_1  

 **************************************************************************

 **************************************************************************

                    xk=(   0.18000,   0.31177,   0.00000  )

     Band symmetry, C_2v (mm2)  point group:

     e(  1 -  1) =    -19.61100  eV     1   --> A_1  D_1  S_1  
     e(  2 -  2) =    -10.61242  eV     1   --> B_1  D_3  S_3  
     e(  3 -  3) =     -9.20118  eV     1   --> A_1  D_1  S_1  
     e(  4 -  4) =     -7.31605  eV     1   --> B_2  D_4  S_4  
     e(  5 -  5) =      3.42209  eV     1   --> A_2  D_2  S_2  
     e(  6 -  6) =      3.96772  eV     1   --> A_1  D_1  S_1  
     e(  7 -  7) =      4.66489  eV     1   --> B_2  D_4  S_4  
     e(  8 -  8) =      4.83375  eV     1   --> A_1  D_1  S_1  

 **************************************************************************

 **************************************************************************

                    xk=(   0.18666,   0.32331,   0.00000  )

     Band symmetry, C_2v (mm2)  point group:

     e(  1 -  1) =    -19.44355  eV     1   --> A_1  D_1  S_1  
     e(  2 -  2) =    -10.84756  eV     1   --> B_1  D_3  S_3  
     e(  3 -  3) =     -9.41114  eV     1   --> A_1  D_1  S_1  
     e(  4 -  4) =     -7.12509  eV     1   --> B_2  D_4  S_4  
     e(  5 -  5) =      3.12645  eV     1   --> A_2  D_2  S_2  
     e(  6 -  6) =      4.20196  eV     1   --> A_1  D_1  S_1  
     e(  7 -  7) =      4.89977  eV     1   --> B_2  D_4  S_4  
     e(  8 -  8) =      5.07429  eV     1   --> A_1  D_1  S_1  

 **************************************************************************

 **************************************************************************

                    xk=(   0.19333,   0.33486,   0.00000  )

     Band symmetry, C_2v (mm2)  point group:

     e(  1 -  1) =    -19.27059  eV     1   --> A_1  D_1  S_1  
     e(  2 -  2) =    -11.07952  eV     1   --> B_1  D_3  S_3  
     e(  3 -  3) =     -9.62054  eV     1   --> A_1  D_1  S_1  
     e(  4 -  4) =     -6.92883  eV     1   --> B_2  D_4  S_4  
     e(  5 -  5) =      2.83250  eV     1   --> A_2  D_2  S_2  
     e(  6 -  6) =      4.44445  eV     1   --> A_1  D_1  S_1  
     e(  7 -  7) =      5.14243  eV     1   --> B_2  D_4  S_4  
     e(  8 -  8) =      5.32357  eV     1   --> A_1  D_1  S_1  

 **************************************************************************

 **************************************************************************

                    xk=(   0.20000,   0.34641,   0.00000  )

     Band symmetry, C_2v (mm2)  point group:

     e(  1 -  1) =    -19.09222  eV     1   --> A_1  D_1  S_1  
     e(  2 -  2) =    -11.30807  eV     1   --> B_1  D_3  S_3  
     e(  3 -  3) =     -9.82894  eV     1   --> A_1  D_1  S_1  
     e(  4 -  4) =     -6.72752  eV     1   --> B_2  D_4  S_4  
     e(  5 -  5) =      2.54071  eV     1   --> A_2  D_2  S_2  
     e(  6 -  6) =      4.69513  eV     1   --> A_1  D_1  S_1  
     e(  7 -  7) =      5.39262  eV     1   --> B_2  D_4  S_4  
     e(  8 -  8) =      5.58156  eV     1   --> A_1  D_1  S_1  

 **************************************************************************

 **************************************************************************

                    xk=(   0.20666,   0.35795,   0.00000  )

     Band symmetry, C_2v (mm2)  point group:

     e(  1 -  1) =    -18.90855  eV     1   --> A_1  D_1  S_1  
     e(  2 -  2) =    -11.53301  eV     1   --> B_1  D_3  S_3  
     e(  3 -  3) =    -10.03591  eV     1   --> A_1  D_1  S_1  
     e(  4 -  4) =     -6.52145  eV     1   --> B_2  D_4  S_4  
     e(  5 -  5) =      2.25154  eV     1   --> A_2  D_2  S_2  
     e(  6 -  6) =      4.95392  eV     1   --> A_1  D_1  S_1  
     e(  7 -  7) =      5.65002  eV     1   --> B_2  D_4  S_4  
     e(  8 -  8) =      5.84826  eV     1   --> A_1  D_1  S_1  

 **************************************************************************

 **************************************************************************

                    xk=(   0.21333,   0.36950,   0.00000  )

     Band symmetry, C_2v (mm2)  point group:

     e(  1 -  1) =    -18.71969  eV     1   --> A_1  D_1  S_1  
     e(  2 -  2) =    -11.75417  eV     1   --> B_1  D_3  S_3  
     e(  3 -  3) =    -10.24104  eV     1   --> A_1  D_1  S_1  
     e(  4 -  4) =     -6.31091  eV     1   --> B_2  D_4  S_4  
     e(  5 -  5) =      1.96539  eV     1   --> A_2  D_2  S_2  
     e(  6 -  6) =      5.22075  eV     1   --> A_1  D_1  S_1  
     e(  7 -  7) =      5.91418  eV     1   --> B_2  D_4  S_4  
     e(  8 -  8) =      6.12366  eV     1   --> A_1  D_1  S_1  

 **************************************************************************

 **************************************************************************

                    xk=(   0.22000,   0.38105,   0.00000  )

     Band symmetry, C_2v (mm2)  point group:

     e(  1 -  1) =    -18.52579  eV     1   --> A_1  D_1  S_1  
     e(  2 -  2) =    -11.97137  eV     1   --> B_1  D_3  S_3  
     e(  3 -  3) =    -10.44393  eV     1   --> A_1  D_1  S_1  
     e(  4 -  4) =     -6.09624  eV     1   --> B_2  D_4  S_4  
     e(  5 -  5) =      1.68264  eV     1   --> A_2  D_2  S_2  
     e(  6 -  6) =      5.49551  eV     1   --> A_1  D_1  S_1  
     e(  7 -  7) =      6.18447  eV     1   --> B_2  D_4  S_4  
     e(  8 -  8) =      6.40775  eV     1   --> A_1  D_1  S_1  

 **************************************************************************

 **************************************************************************

                    xk=(   0.22666,   0.39259,   0.00000  )

     Band symmetry, C_2v (mm2)  point group:

     e(  1 -  1) =    -18.32701  eV     1   --> A_1  D_1  S_1  
     e(  2 -  2) =    -12.18446  eV     1   --> B_1  D_3  S_3  
     e(  3 -  3) =    -10.64418  eV     1   --> A_1  D_1  S_1  
     e(  4 -  4) =     -5.87781  eV     1   --> B_2  D_4  S_4  
     e(  5 -  5) =      1.40363  eV     1   --> A_2  D_2  S_2  
     e(  6 -  6) =      5.77808  eV     1   --> A_1  D_1  S_1  
     e(  7 -  7) =      6.45995  eV     1   --> B_2  D_4  S_4  
     e(  8 -  8) =      6.70052  eV     1   --> A_1  D_1  S_1  

 **************************************************************************

 **************************************************************************

                    xk=(   0.23333,   0.40414,   0.00000  )

     Band symmetry, C_2v (mm2)  point group:

     e(  1 -  1) =    -18.12353  eV     1   --> A_1  D_1  S_1  
     e(  2 -  2) =    -12.39333  eV     1   --> B_1  D_3  S_3  
     e(  3 -  3) =    -10.84138  eV     1   --> A_1  D_1  S_1  
     e(  4 -  4) =     -5.65604  eV     1   --> B_2  D_4  S_4  
     e(  5 -  5) =      1.12868  eV     1   --> A_2  D_2  S_2  
     e(  6 -  6) =      6.06831  eV     1   --> A_1  D_1  S_1  
     e(  7 -  7) =      6.73921  eV     1   --> B_2  D_4  S_4  
     e(  8 -  8) =      7.00195  eV     1   --> A_1  D_1  S_1  

 **************************************************************************

 **************************************************************************

                    xk=(   0.24000,   0.41569,   0.00000  )

     Band symmetry, C_2v (mm2)  point group:

     e(  1 -  1) =    -17.91559  eV     1   --> A_1  D_1  S_1  
     e(  2 -  2) =    -12.59785  eV     1   --> B_1  D_3  S_3  
     e(  3 -  3) =    -11.03514  eV     1   --> A_1  D_1  S_1  
     e(  4 -  4) =     -5.43136  eV     1   --> B_2  D_4  S_4  
     e(  5 -  5) =      0.85810  eV     1   --> A_2  D_2  S_2  
     e(  6 -  6) =      6.36599  eV     1   --> A_1  D_1  S_1  
     e(  7 -  7) =      7.02005  eV     1   --> B_2  D_4  S_4  
     e(  8 -  8) =      7.31203  eV     1   --> A_1  D_1  S_1  

 **************************************************************************

 **************************************************************************

                    xk=(   0.24666,   0.42723,   0.00000  )

     Band symmetry, C_2v (mm2)  point group:

     e(  1 -  1) =    -17.70344  eV     1   --> A_1  D_1  S_1  
     e(  2 -  2) =    -12.79792  eV     1   --> B_1  D_3  S_3  
     e(  3 -  3) =    -11.22502  eV     1   --> A_1  D_1  S_1  
     e(  4 -  4) =     -5.20428  eV     1   --> B_2  D_4  S_4  
     e(  5 -  5) =      0.59214  eV     1   --> A_2  D_2  S_2  
     e(  6 -  6) =      6.67089  eV     1   --> A_1  D_1  S_1  
     e(  7 -  7) =      7.29891  eV     1   --> B_2  D_4  S_4  
     e(  8 -  8) =      7.63072  eV     1   --> A_1  D_1  S_1  

 **************************************************************************

 **************************************************************************

                    xk=(   0.25333,   0.43878,   0.00000  )

     Band symmetry, C_2v (mm2)  point group:

     e(  1 -  1) =    -17.48739  eV     1   --> A_1  D_1  S_1  
     e(  2 -  2) =    -12.99343  eV     1   --> B_1  D_3  S_3  
     e(  3 -  3) =    -11.41059  eV     1   --> A_1  D_1  S_1  
     e(  4 -  4) =     -4.97533  eV     1   --> B_2  D_4  S_4  
     e(  5 -  5) =      0.33106  eV     1   --> A_2  D_2  S_2  
     e(  6 -  6) =      6.98269  eV     1   --> A_1  D_1  S_1  
     e(  7 -  7) =      7.56991  eV     1   --> B_2  D_4  S_4  
     e(  8 -  8) =      7.95799  eV     1   --> A_1  D_1  S_1  

 **************************************************************************

 **************************************************************************

                    xk=(   0.26000,   0.45033,   0.00000  )

     Band symmetry, C_2v (mm2)  point group:

     e(  1 -  1) =    -17.26784  eV     1   --> A_1  D_1  S_1  
     e(  2 -  2) =    -13.18431  eV     1   --> B_1  D_3  S_3  
     e(  3 -  3) =    -11.59134  eV     1   --> A_1  D_1  S_1  
     e(  4 -  4) =     -4.74511  eV     1   --> B_2  D_4  S_4  
     e(  5 -  5) =      0.07509  eV     1   --> A_2  D_2  S_2  
     e(  6 -  6) =      7.30096  eV     1   --> A_1  D_1  S_1  
     e(  7 -  7) =      7.82342  eV     1   --> B_2  D_4  S_4  
     e(  8 -  8) =      8.29379  eV     1   --> A_1  D_1  S_1  

 **************************************************************************

 **************************************************************************

                    xk=(   0.26666,   0.46188,   0.00000  )

     Band symmetry, C_2v (mm2)  point group:

     e(  1 -  1) =    -17.04525  eV     1   --> A_1  D_1  S_1  
     e(  2 -  2) =    -13.37048  eV     1   --> B_1  D_3  S_3  
     e(  3 -  3) =    -11.76671  eV     1   --> A_1  D_1  S_1  
     e(  4 -  4) =     -4.51427  eV     1   --> B_2  D_4  S_4  
     e(  5 -  5) =     -0.17555  eV     1   --> A_2  D_2  S_2  
     e(  6 -  6) =      7.62515  eV     1   --> A_1  D_1  S_1  
     e(  7 -  7) =      8.04481  eV     1   --> B_2  D_4  S_4  
     e(  8 -  8) =      8.63806  eV     1   --> A_1  D_1  S_1  

 **************************************************************************

 **************************************************************************

                    xk=(   0.27333,   0.47342,   0.00000  )

     Band symmetry, C_2v (mm2)  point group:

     e(  1 -  1) =    -16.82024  eV     1   --> A_1  D_1  S_1  
     e(  2 -  2) =    -13.55186  eV     1   --> B_1  D_3  S_3  
     e(  3 -  3) =    -11.93605  eV     1   --> A_1  D_1  S_1  
     e(  4 -  4) =     -4.28351  eV     1   --> B_2  D_4  S_4  
     e(  5 -  5) =     -0.42069  eV     1   --> A_2  D_2  S_2  
     e(  6 -  6) =      7.95448  eV     1   --> A_1  D_1  S_1  
     e(  7 -  7) =      8.21648  eV     1   --> B_2  D_4  S_4  
     e(  8 -  8) =      8.99069  eV     1   --> A_1  D_1  S_1  

 **************************************************************************

 **************************************************************************

                    xk=(   0.28000,   0.48497,   0.00000  )

     Band symmetry, C_2v (mm2)  point group:

     e(  1 -  1) =    -16.59356  eV     1   --> A_1  D_1  S_1  
     e(  2 -  2) =    -13.72840  eV     1   --> B_1  D_3  S_3  
     e(  3 -  3) =    -12.09856  eV     1   --> A_1  D_1  S_1  
     e(  4 -  4) =     -4.05359  eV     1   --> B_2  D_4  S_4  
     e(  5 -  5) =     -0.66012  eV     1   --> A_2  D_2  S_2  
     e(  6 -  6) =      8.28787  eV     1   --> A_1  D_1  S_1  
     e(  7 -  7) =      8.32680  eV     1   --> B_2  D_4  S_4  
     e(  8 -  8) =      9.35153  eV     1   --> A_1  D_1  S_1  

 **************************************************************************

 **************************************************************************

                    xk=(   0.28666,   0.49652,   0.00000  )

     Band symmetry, C_2v (mm2)  point group:

     e(  1 -  1) =    -16.36621  eV     1   --> A_1  D_1  S_1  
     e(  2 -  2) =    -13.90003  eV     1   --> B_1  D_3  S_3  
     e(  3 -  3) =    -12.25322  eV     1   --> A_1  D_1  S_1  
     e(  4 -  4) =     -3.82534  eV     1   --> B_2  D_4  S_4  
     e(  5 -  5) =     -0.89369  eV     1   --> A_2  D_2  S_2  
     e(  6 -  6) =      8.37905  eV     1   --> B_2  D_4  S_4  
     e(  7 -  7) =      8.62375  eV     1   --> A_1  D_1  S_1  
     e(  8 -  8) =      9.72030  eV     1   --> A_1  D_1  S_1  

 **************************************************************************

 **************************************************************************

                    xk=(   0.29333,   0.50806,   0.00000  )

     Band symmetry, C_2v (mm2)  point group:

     e(  1 -  1) =    -16.13955  eV     1   --> A_1  D_1  S_1  
     e(  2 -  2) =    -14.06671  eV     1   --> B_1  D_3  S_3  
     e(  3 -  3) =    -12.39873  eV     1   --> A_1  D_1  S_1  
     e(  4 -  4) =     -3.59963  eV     1   --> B_2  D_4  S_4  
     e(  5 -  5) =     -1.12124  eV     1   --> A_2  D_2  S_2  
     e(  6 -  6) =      8.38842  eV     1   --> B_2  D_4  S_4  
     e(  7 -  7) =      8.95978  eV     1   --> A_1  D_1  S_1  
     e(  8 -  8) =     10.09640  eV     1   --> A_1  D_1  S_1  

 **************************************************************************

 **************************************************************************

                    xk=(   0.30000,   0.51961,   0.00000  )

     Band symmetry, C_2v (mm2)  point group:

     e(  1 -  1) =    -15.91537  eV     1   --> A_1  D_1  S_1  
     e(  2 -  2) =    -14.22839  eV     1   --> B_1  D_3  S_3  
     e(  3 -  3) =    -12.53331  eV     1   --> A_1  D_1  S_1  
     e(  4 -  4) =     -3.37739  eV     1   --> B_2  D_4  S_4  
     e(  5 -  5) =     -1.34263  eV     1   --> A_2  D_2  S_2  
     e(  6 -  6) =      8.37206  eV     1   --> B_2  D_4  S_4  
     e(  7 -  7) =      9.29231  eV     1   --> A_1  D_1  S_1  
     e(  8 -  8) =     10.47806  eV     1   --> A_1  D_1  S_1  

 **************************************************************************

 **************************************************************************

                    xk=(   0.30666,   0.53116,   0.00000  )

     Band symmetry, C_2v (mm2)  point group:

     e(  1 -  1) =    -15.69620  eV     1   --> A_1  D_1  S_1  
     e(  2 -  2) =    -14.38503  eV     1   --> B_1  D_3  S_3  
     e(  3 -  3) =    -12.65455  eV     1   --> A_1  D_1  S_1  
     e(  4 -  4) =     -3.15960  eV     1   --> B_2  D_4  S_4  
     e(  5 -  5) =     -1.55772  eV     1   --> A_2  D_2  S_2  
     e(  6 -  6) =      8.34360  eV     1   --> B_2  D_4  S_4  
     e(  7 -  7) =      9.61550  eV     1   --> A_1  D_1  S_1  
     e(  8 -  8) =     10.64956  eV     1   --> B_1  D_3  S_3  

 **************************************************************************

 **************************************************************************

                    xk=(   0.31333,   0.54270,   0.00000  )

     Band symmetry, C_2v (mm2)  point group:

     e(  1 -  1) =    -15.48553  eV     1   --> A_1  D_1  S_1  
     e(  2 -  2) =    -14.53659  eV     1   --> B_1  D_3  S_3  
     e(  3 -  3) =    -12.75906  eV     1   --> A_1  D_1  S_1  
     e(  4 -  4) =     -2.94726  eV     1   --> B_2  D_4  S_4  
     e(  5 -  5) =     -1.76640  eV     1   --> A_2  D_2  S_2  
     e(  6 -  6) =      8.31265  eV     1   --> B_2  D_4  S_4  
     e(  7 -  7) =      9.91962  eV     1   --> A_1  D_1  S_1  
     e(  8 -  8) =     10.64034  eV     1   --> B_1  D_3  S_3  

 **************************************************************************

 **************************************************************************

                    xk=(   0.32000,   0.55425,   0.00000  )

     Band symmetry, C_2v (mm2)  point group:

     e(  1 -  1) =    -15.28819  eV     1   --> A_1  D_1  S_1  
     e(  2 -  2) =    -14.68303  eV     1   --> B_1  D_3  S_3  
     e(  3 -  3) =    -12.84216  eV     1   --> A_1  D_1  S_1  
     e(  4 -  4) =     -2.74139  eV     1   --> B_2  D_4  S_4  
     e(  5 -  5) =     -1.96856  eV     1   --> A_2  D_2  S_2  
     e(  6 -  6) =      8.28579  eV     1   --> B_2  D_4  S_4  
     e(  7 -  7) =     10.18822  eV     1   --> A_1  D_1  S_1  
     e(  8 -  8) =     10.61429  eV     1   --> B_1  D_3  S_3  

 **************************************************************************

 **************************************************************************

                    xk=(   0.32666,   0.56580,   0.00000  )

     Band symmetry, C_2v (mm2)  point group:

     e(  1 -  1) =    -15.11062  eV     1   --> A_1  D_1  S_1  
     e(  2 -  2) =    -14.82433  eV     1   --> B_1  D_3  S_3  
     e(  3 -  3) =    -12.89760  eV     1   --> A_1  D_1  S_1  
     e(  4 -  4) =     -2.54299  eV     1   --> B_2  D_4  S_4  
     e(  5 -  5) =     -2.16408  eV     1   --> A_2  D_2  S_2  
     e(  6 -  6) =      8.26749  eV     1   --> B_2  D_4  S_4  
     e(  7 -  7) =     10.39543  eV     1   --> A_1  D_1  S_1  
     e(  8 -  8) =     10.57135  eV     1   --> B_1  D_3  S_3  

 **************************************************************************

 **************************************************************************

                    xk=(   0.33333,   0.57734,   0.00000  )

     zone border point and non-symmorphic group 
     symmetry decomposition not available

 **************************************************************************

 **************************************************************************

                    xk=(   0.33889,   0.56772,   0.00000  )

     zone border point and non-symmorphic group 
     symmetry decomposition not available

 **************************************************************************

 **************************************************************************

                    xk=(   0.34444,   0.55810,   0.00000  )

     zone border point and non-symmorphic group 
     symmetry decomposition not available

 **************************************************************************

 **************************************************************************

                    xk=(   0.35000,   0.54848,   0.00000  )

     zone border point and non-symmorphic group 
     symmetry decomposition not available

 **************************************************************************

 **************************************************************************

                    xk=(   0.35555,   0.53886,   0.00000  )

     zone border point and non-symmorphic group 
     symmetry decomposition not available

 **************************************************************************

 **************************************************************************

                    xk=(   0.36111,   0.52923,   0.00000  )

     zone border point and non-symmorphic group 
     symmetry decomposition not available

 **************************************************************************

 **************************************************************************

                    xk=(   0.36666,   0.51961,   0.00000  )

     zone border point and non-symmorphic group 
     symmetry decomposition not available

 **************************************************************************

 **************************************************************************

                    xk=(   0.37222,   0.50999,   0.00000  )

     zone border point and non-symmorphic group 
     symmetry decomposition not available

 **************************************************************************

 **************************************************************************

                    xk=(   0.37778,   0.50037,   0.00000  )

     zone border point and non-symmorphic group 
     symmetry decomposition not available

 **************************************************************************

 **************************************************************************

                    xk=(   0.38333,   0.49074,   0.00000  )

     zone border point and non-symmorphic group 
     symmetry decomposition not available

 **************************************************************************

 **************************************************************************

                    xk=(   0.38889,   0.48112,   0.00000  )

     zone border point and non-symmorphic group 
     symmetry decomposition not available

 **************************************************************************

 **************************************************************************

                    xk=(   0.39444,   0.47150,   0.00000  )

     zone border point and non-symmorphic group 
     symmetry decomposition not available

 **************************************************************************

 **************************************************************************

                    xk=(   0.40000,   0.46188,   0.00000  )

     zone border point and non-symmorphic group 
     symmetry decomposition not available

 **************************************************************************

 **************************************************************************

                    xk=(   0.40555,   0.45225,   0.00000  )

     zone border point and non-symmorphic group 
     symmetry decomposition not available

 **************************************************************************

 **************************************************************************

                    xk=(   0.41111,   0.44263,   0.00000  )

     zone border point and non-symmorphic group 
     symmetry decomposition not available

 **************************************************************************

 **************************************************************************

                    xk=(   0.41667,   0.43301,   0.00000  )

     zone border point and non-symmorphic group 
     symmetry decomposition not available

 **************************************************************************

 **************************************************************************

                    xk=(   0.42222,   0.42339,   0.00000  )

     zone border point and non-symmorphic group 
     symmetry decomposition not available

 **************************************************************************

 **************************************************************************

                    xk=(   0.42778,   0.41377,   0.00000  )

     zone border point and non-symmorphic group 
     symmetry decomposition not available

 **************************************************************************

 **************************************************************************

                    xk=(   0.43333,   0.40414,   0.00000  )

     zone border point and non-symmorphic group 
     symmetry decomposition not available

 **************************************************************************

 **************************************************************************

                    xk=(   0.43889,   0.39452,   0.00000  )

     zone border point and non-symmorphic group 
     symmetry decomposition not available

 **************************************************************************

 **************************************************************************

                    xk=(   0.44444,   0.38490,   0.00000  )

     zone border point and non-symmorphic group 
     symmetry decomposition not available

 **************************************************************************

 **************************************************************************

                    xk=(   0.45000,   0.37528,   0.00000  )

     zone border point and non-symmorphic group 
     symmetry decomposition not available

 **************************************************************************

 **************************************************************************

                    xk=(   0.45555,   0.36565,   0.00000  )

     zone border point and non-symmorphic group 
     symmetry decomposition not available

 **************************************************************************

 **************************************************************************

                    xk=(   0.46111,   0.35603,   0.00000  )

     zone border point and non-symmorphic group 
     symmetry decomposition not available

 **************************************************************************

 **************************************************************************

                    xk=(   0.46667,   0.34641,   0.00000  )

     zone border point and non-symmorphic group 
     symmetry decomposition not available

 **************************************************************************

 **************************************************************************

                    xk=(   0.47222,   0.33679,   0.00000  )

     zone border point and non-symmorphic group 
     symmetry decomposition not available

 **************************************************************************

 **************************************************************************

                    xk=(   0.47778,   0.32716,   0.00000  )

     zone border point and non-symmorphic group 
     symmetry decomposition not available

 **************************************************************************

 **************************************************************************

                    xk=(   0.48333,   0.31754,   0.00000  )

     zone border point and non-symmorphic group 
     symmetry decomposition not available

 **************************************************************************

 **************************************************************************

                    xk=(   0.48889,   0.30792,   0.00000  )

     zone border point and non-symmorphic group 
     symmetry decomposition not available

 **************************************************************************

 **************************************************************************

                    xk=(   0.49444,   0.29830,   0.00000  )

     zone border point and non-symmorphic group 
     symmetry decomposition not available

 **************************************************************************

 **************************************************************************

                    xk=(   0.50000,   0.28868,   0.00000  )

     zone border point and non-symmorphic group 
     symmetry decomposition not available

 **************************************************************************

 **************************************************************************

                    xk=(   0.49000,   0.28290,   0.00000  )

     point group C_2v (mm2) 
     there are  4 classes
     the character table:

       E     C2    s_v   s_v' 
A_1    1.00  1.00  1.00  1.00
A_2    1.00  1.00 -1.00 -1.00
B_1    1.00 -1.00  1.00 -1.00
B_2    1.00 -1.00 -1.00  1.00

     the symmetry operations in each class and the name of the first element:

     E        1
                                                                 
     C2       2
                                                                 
     s_v      3
                                                                 
     s_v'     4
                                                                 

     Band symmetry, C_2v (mm2)  point group:

     e(  1 -  1) =    -16.68195  eV     1   --> A_1  D_1  S_1  
     e(  2 -  2) =    -15.55124  eV     1   --> A_1  D_1  S_1  
     e(  3 -  3) =     -8.78352  eV     1   --> B_1  D_3  S_3  
     e(  4 -  4) =     -4.72841  eV     1   --> B_2  D_4  S_4  
     e(  5 -  5) =     -0.65421  eV     1   --> B_2  D_4  S_4  
     e(  6 -  6) =      5.02174  eV     1   --> A_1  D_1  S_1  
     e(  7 -  7) =      8.48124  eV     1   --> A_1  D_1  S_1  
     e(  8 -  8) =      9.11156  eV     1   --> A_1  D_1  S_1  

 **************************************************************************

 **************************************************************************

                    xk=(   0.48000,   0.27713,   0.00000  )

     Band symmetry, C_2v (mm2)  point group:

     e(  1 -  1) =    -16.79336  eV     1   --> A_1  D_1  S_1  
     e(  2 -  2) =    -15.42927  eV     1   --> A_1  D_1  S_1  
     e(  3 -  3) =     -8.77646  eV     1   --> B_1  D_3  S_3  
     e(  4 -  4) =     -4.77430  eV     1   --> B_2  D_4  S_4  
     e(  5 -  5) =     -0.59726  eV     1   --> B_2  D_4  S_4  
     e(  6 -  6) =      5.02532  eV     1   --> A_1  D_1  S_1  
     e(  7 -  7) =      8.18487  eV     1   --> A_1  D_1  S_1  
     e(  8 -  8) =      8.95517  eV     1   --> B_2  D_4  S_4  

 **************************************************************************

 **************************************************************************

                    xk=(   0.47000,   0.27135,   0.00000  )

     Band symmetry, C_2v (mm2)  point group:

     e(  1 -  1) =    -16.94369  eV     1   --> A_1  D_1  S_1  
     e(  2 -  2) =    -15.26136  eV     1   --> A_1  D_1  S_1  
     e(  3 -  3) =     -8.76471  eV     1   --> B_1  D_3  S_3  
     e(  4 -  4) =     -4.84798  eV     1   --> B_2  D_4  S_4  
     e(  5 -  5) =     -0.50519  eV     1   --> B_2  D_4  S_4  
     e(  6 -  6) =      5.03126  eV     1   --> A_1  D_1  S_1  
     e(  7 -  7) =      7.89088  eV     1   --> A_1  D_1  S_1  
     e(  8 -  8) =      8.65752  eV     1   --> B_2  D_4  S_4  

 **************************************************************************

 **************************************************************************

                    xk=(   0.46000,   0.26558,   0.00000  )

     Band symmetry, C_2v (mm2)  point group:

     e(  1 -  1) =    -17.11318  eV     1   --> A_1  D_1  S_1  
     e(  2 -  2) =    -15.06728  eV     1   --> A_1  D_1  S_1  
     e(  3 -  3) =     -8.74828  eV     1   --> B_1  D_3  S_3  
     e(  4 -  4) =     -4.94587  eV     1   --> B_2  D_4  S_4  
     e(  5 -  5) =     -0.38161  eV     1   --> B_2  D_4  S_4  
     e(  6 -  6) =      5.03952  eV     1   --> A_1  D_1  S_1  
     e(  7 -  7) =      7.60150  eV     1   --> A_1  D_1  S_1  
     e(  8 -  8) =      8.36394  eV     1   --> B_2  D_4  S_4  

 **************************************************************************

 **************************************************************************

                    xk=(   0.45000,   0.25981,   0.00000  )

     Band symmetry, C_2v (mm2)  point group:

     e(  1 -  1) =    -17.29154  eV     1   --> A_1  D_1  S_1  
     e(  2 -  2) =    -14.85737  eV     1   --> A_1  D_1  S_1  
     e(  3 -  3) =     -8.72719  eV     1   --> B_1  D_3  S_3  
     e(  4 -  4) =     -5.06395  eV     1   --> B_2  D_4  S_4  
     e(  5 -  5) =     -0.23060  eV     1   --> B_2  D_4  S_4  
     e(  6 -  6) =      5.05006  eV     1   --> A_1  D_1  S_1  
     e(  7 -  7) =      7.31735  eV     1   --> A_1  D_1  S_1  
     e(  8 -  8) =      8.07528  eV     1   --> B_2  D_4  S_4  

 **************************************************************************

 **************************************************************************

                    xk=(   0.44000,   0.25403,   0.00000  )

     Band symmetry, C_2v (mm2)  point group:

     e(  1 -  1) =    -17.47351  eV     1   --> A_1  D_1  S_1  
     e(  2 -  2) =    -14.63692  eV     1   --> A_1  D_1  S_1  
     e(  3 -  3) =     -8.70146  eV     1   --> B_1  D_3  S_3  
     e(  4 -  4) =     -5.19826  eV     1   --> B_2  D_4  S_4  
     e(  5 -  5) =     -0.05622  eV     1   --> B_2  D_4  S_4  
     e(  6 -  6) =      5.06277  eV     1   --> A_1  D_1  S_1  
     e(  7 -  7) =      7.03877  eV     1   --> A_1  D_1  S_1  
     e(  8 -  8) =      7.79196  eV     1   --> B_2  D_4  S_4  

 **************************************************************************

 **************************************************************************

                    xk=(   0.43000,   0.24826,   0.00000  )

     Band symmetry, C_2v (mm2)  point group:

     e(  1 -  1) =    -17.65626  eV     1   --> A_1  D_1  S_1  
     e(  2 -  2) =    -14.40881  eV     1   --> A_1  D_1  S_1  
     e(  3 -  3) =     -8.67113  eV     1   --> B_1  D_3  S_3  
     e(  4 -  4) =     -5.34517  eV     1   --> B_2  D_4  S_4  
     e(  5 -  5) =      0.13781  eV     1   --> B_2  D_4  S_4  
     e(  6 -  6) =      5.07752  eV     1   --> A_1  D_1  S_1  
     e(  7 -  7) =      6.76602  eV     1   --> A_1  D_1  S_1  
     e(  8 -  8) =      7.51423  eV     1   --> B_2  D_4  S_4  

 **************************************************************************

 **************************************************************************

                    xk=(   0.42000,   0.24249,   0.00000  )

     Band symmetry, C_2v (mm2)  point group:

     e(  1 -  1) =    -17.83815  eV     1   --> A_1  D_1  S_1  
     e(  2 -  2) =    -14.17475  eV     1   --> A_1  D_1  S_1  
     e(  3 -  3) =     -8.63623  eV     1   --> B_1  D_3  S_3  
     e(  4 -  4) =     -5.50159  eV     1   --> B_2  D_4  S_4  
     e(  5 -  5) =      0.34827  eV     1   --> B_2  D_4  S_4  
     e(  6 -  6) =      5.09411  eV     1   --> A_1  D_1  S_1  
     e(  7 -  7) =      6.49941  eV     1   --> A_1  D_1  S_1  
     e(  8 -  8) =      7.24225  eV     1   --> B_2  D_4  S_4  

 **************************************************************************

 **************************************************************************

                    xk=(   0.41000,   0.23671,   0.00000  )

     Band symmetry, C_2v (mm2)  point group:

     e(  1 -  1) =    -18.01819  eV     1   --> A_1  D_1  S_1  
     e(  2 -  2) =    -13.93580  eV     1   --> A_1  D_1  S_1  
     e(  3 -  3) =     -8.59680  eV     1   --> B_1  D_3  S_3  
     e(  4 -  4) =     -5.66490  eV     1   --> B_2  D_4  S_4  
     e(  5 -  5) =      0.57239  eV     1   --> B_2  D_4  S_4  
     e(  6 -  6) =      5.11213  eV     1   --> A_1  D_1  S_1  
     e(  7 -  7) =      6.23934  eV     1   --> A_1  D_1  S_1  
     e(  8 -  8) =      6.97617  eV     1   --> B_2  D_4  S_4  

 **************************************************************************

 **************************************************************************

                    xk=(   0.40000,   0.23094,   0.00000  )

     Band symmetry, C_2v (mm2)  point group:

     e(  1 -  1) =    -18.19572  eV     1   --> A_1  D_1  S_1  
     e(  2 -  2) =    -13.69270  eV     1   --> A_1  D_1  S_1  
     e(  3 -  3) =     -8.55289  eV     1   --> B_1  D_3  S_3  
     e(  4 -  4) =     -5.83297  eV     1   --> B_2  D_4  S_4  
     e(  5 -  5) =      0.80789  eV     1   --> B_2  D_4  S_4  
     e(  6 -  6) =      5.13082  eV     1   --> A_1  D_1  S_1  
     e(  7 -  7) =      5.98662  eV     1   --> A_1  D_1  S_1  
     e(  8 -  8) =      6.71608  eV     1   --> B_2  D_4  S_4  

 **************************************************************************

 **************************************************************************

                    xk=(   0.39000,   0.22517,   0.00000  )

     Band symmetry, C_2v (mm2)  point group:

     e(  1 -  1) =    -18.37030  eV     1   --> A_1  D_1  S_1  
     e(  2 -  2) =    -13.44599  eV     1   --> A_1  D_1  S_1  
     e(  3 -  3) =     -8.50457  eV     1   --> B_1  D_3  S_3  
     e(  4 -  4) =     -6.00404  eV     1   --> B_2  D_4  S_4  
     e(  5 -  5) =      1.05283  eV     1   --> B_2  D_4  S_4  
     e(  6 -  6) =      5.14812  eV     1   --> A_1  D_1  S_1  
     e(  7 -  7) =      5.74324  eV     1   --> A_1  D_1  S_1  
     e(  8 -  8) =      6.46209  eV     1   --> B_2  D_4  S_4  

 **************************************************************************

 **************************************************************************

                    xk=(   0.38000,   0.21939,   0.00000  )

     Band symmetry, C_2v (mm2)  point group:

     e(  1 -  1) =    -18.54162  eV     1   --> A_1  D_1  S_1  
     e(  2 -  2) =    -13.19608  eV     1   --> A_1  D_1  S_1  
     e(  3 -  3) =     -8.45189  eV     1   --> B_1  D_3  S_3  
     e(  4 -  4) =     -6.17673  eV     1   --> B_2  D_4  S_4  
     e(  5 -  5) =      1.30559  eV     1   --> B_2  D_4  S_4  
     e(  6 -  6) =      5.15663  eV     1   --> A_1  D_1  S_1  
     e(  7 -  7) =      5.51653  eV     1   --> A_1  D_1  S_1  
     e(  8 -  8) =      6.21426  eV     1   --> B_2  D_4  S_4  

 **************************************************************************

 **************************************************************************

                    xk=(   0.37000,   0.21362,   0.00000  )

     Band symmetry, C_2v (mm2)  point group:

     e(  1 -  1) =    -18.70944  eV     1   --> A_1  D_1  S_1  
     e(  2 -  2) =    -12.94334  eV     1   --> A_1  D_1  S_1  
     e(  3 -  3) =     -8.39493  eV     1   --> B_1  D_3  S_3  
     e(  4 -  4) =     -6.34987  eV     1   --> B_2  D_4  S_4  
     e(  5 -  5) =      1.56478  eV     1   --> B_2  D_4  S_4  
     e(  6 -  6) =      5.11757  eV     1   --> A_1  D_1  S_1  
     e(  7 -  7) =      5.34510  eV     1   --> A_1  D_1  S_1  
     e(  8 -  8) =      5.97268  eV     1   --> B_2  D_4  S_4  

 **************************************************************************

 **************************************************************************

                    xk=(   0.36000,   0.20785,   0.00000  )

     Band symmetry, C_2v (mm2)  point group:

     e(  1 -  1) =    -18.87359  eV     1   --> A_1  D_1  S_1  
     e(  2 -  2) =    -12.68806  eV     1   --> A_1  D_1  S_1  
     e(  3 -  3) =     -8.33377  eV     1   --> B_1  D_3  S_3  
     e(  4 -  4) =     -6.52255  eV     1   --> B_2  D_4  S_4  
     e(  5 -  5) =      1.82920  eV     1   --> B_2  D_4  S_4  
     e(  6 -  6) =      4.96123  eV     1   --> A_1  D_1  S_1  
     e(  7 -  7) =      5.29831  eV     1   --> A_1  D_1  S_1  
     e(  8 -  8) =      5.73743  eV     1   --> B_2  D_4  S_4  

 **************************************************************************

 **************************************************************************

                    xk=(   0.35000,   0.20207,   0.00000  )

     Band symmetry, C_2v (mm2)  point group:

     e(  1 -  1) =    -19.03392  eV     1   --> A_1  D_1  S_1  
     e(  2 -  2) =    -12.43055  eV     1   --> A_1  D_1  S_1  
     e(  3 -  3) =     -8.26850  eV     1   --> B_1  D_3  S_3  
     e(  4 -  4) =     -6.69399  eV     1   --> B_2  D_4  S_4  
     e(  5 -  5) =      2.09776  eV     1   --> B_2  D_4  S_4  
     e(  6 -  6) =      4.75464  eV     1   --> A_1  D_1  S_1  
     e(  7 -  7) =      5.30801  eV     1   --> A_1  D_1  S_1  
     e(  8 -  8) =      5.50860  eV     1   --> B_2  D_4  S_4  

 **************************************************************************

 **************************************************************************

                    xk=(   0.34000,   0.19630,   0.00000  )

     Band symmetry, C_2v (mm2)  point group:

     e(  1 -  1) =    -19.19033  eV     1   --> A_1  D_1  S_1  
     e(  2 -  2) =    -12.17107  eV     1   --> A_1  D_1  S_1  
     e(  3 -  3) =     -8.19921  eV     1   --> B_1  D_3  S_3  
     e(  4 -  4) =     -6.86356  eV     1   --> B_2  D_4  S_4  
     e(  5 -  5) =      2.36944  eV     1   --> B_2  D_4  S_4  
     e(  6 -  6) =      4.54220  eV     1   --> A_1  D_1  S_1  
     e(  7 -  7) =      5.28630  eV     1   --> B_2  D_4  S_4  
     e(  8 -  8) =      5.32091  eV     1   --> A_1  D_1  S_1  

 **************************************************************************

 **************************************************************************

                    xk=(   0.33000,   0.19053,   0.00000  )

     Band symmetry, C_2v (mm2)  point group:

     e(  1 -  1) =    -19.34272  eV     1   --> A_1  D_1  S_1  
     e(  2 -  2) =    -11.90989  eV     1   --> A_1  D_1  S_1  
     e(  3 -  3) =     -8.12603  eV     1   --> B_1  D_3  S_3  
     e(  4 -  4) =     -7.03074  eV     1   --> B_2  D_4  S_4  
     e(  5 -  5) =      2.64325  eV     1   --> B_2  D_4  S_4  
     e(  6 -  6) =      4.33227  eV     1   --> A_1  D_1  S_1  
     e(  7 -  7) =      5.07072  eV     1   --> B_2  D_4  S_4  
     e(  8 -  8) =      5.20484  eV     1   --> A_1  D_1  S_1  

 **************************************************************************

 **************************************************************************

                    xk=(   0.32000,   0.18475,   0.00000  )

     Band symmetry, C_2v (mm2)  point group:

     e(  1 -  1) =    -19.49101  eV     1   --> A_1  D_1  S_1  
     e(  2 -  2) =    -11.64730  eV     1   --> A_1  D_1  S_1  
     e(  3 -  3) =     -8.04907  eV     1   --> B_1  D_3  S_3  
     e(  4 -  4) =     -7.19509  eV     1   --> B_2  D_4  S_4  
     e(  5 -  5) =      2.91808  eV     1   --> B_2  D_4  S_4  
     e(  6 -  6) =      4.12700  eV     1   --> A_1  D_1  S_1  
     e(  7 -  7) =      4.86218  eV     1   --> B_2  D_4  S_4  
     e(  8 -  8) =      4.99954  eV     1   --> A_1  D_1  S_1  

 **************************************************************************

 **************************************************************************

                    xk=(   0.31000,   0.17898,   0.00000  )

     Band symmetry, C_2v (mm2)  point group:

     e(  1 -  1) =    -19.63514  eV     1   --> A_1  D_1  S_1  
     e(  2 -  2) =    -11.38356  eV     1   --> A_1  D_1  S_1  
     e(  3 -  3) =     -7.96847  eV     1   --> B_1  D_3  S_3  
     e(  4 -  4) =     -7.35625  eV     1   --> B_2  D_4  S_4  
     e(  5 -  5) =      3.19245  eV     1   --> B_2  D_4  S_4  
     e(  6 -  6) =      3.92718  eV     1   --> A_1  D_1  S_1  
     e(  7 -  7) =      4.66138  eV     1   --> B_2  D_4  S_4  
     e(  8 -  8) =      4.79491  eV     1   --> A_1  D_1  S_1  

 **************************************************************************

 **************************************************************************

                    xk=(   0.30000,   0.17321,   0.00000  )

     Band symmetry, C_2v (mm2)  point group:

     e(  1 -  1) =    -19.77505  eV     1   --> A_1  D_1  S_1  
     e(  2 -  2) =    -11.11898  eV     1   --> A_1  D_1  S_1  
     e(  3 -  3) =     -7.88437  eV     1   --> B_1  D_3  S_3  
     e(  4 -  4) =     -7.51390  eV     1   --> B_2  D_4  S_4  
     e(  5 -  5) =      3.46363  eV     1   --> B_2  D_4  S_4  
     e(  6 -  6) =      3.73317  eV     1   --> A_1  D_1  S_1  
     e(  7 -  7) =      4.47023  eV     1   --> B_2  D_4  S_4  
     e(  8 -  8) =      4.59571  eV     1   --> A_1  D_1  S_1  

 **************************************************************************

 **************************************************************************

                    xk=(   0.29000,   0.16743,   0.00000  )

     Band symmetry, C_2v (mm2)  point group:

     e(  1 -  1) =    -19.91070  eV     1   --> A_1  D_1  S_1  
     e(  2 -  2) =    -10.85386  eV     1   --> A_1  D_1  S_1  
     e(  3 -  3) =     -7.79694  eV     1   --> B_1  D_3  S_3  
     e(  4 -  4) =     -7.66777  eV     1   --> B_2  D_4  S_4  
     e(  5 -  5) =      3.54515  eV     1   --> A_1  D_1  S_1  
     e(  6 -  6) =      3.72284  eV     1   --> B_2  D_4  S_4  
     e(  7 -  7) =      4.29647  eV     1   --> B_2  D_4  S_4  
     e(  8 -  8) =      4.40266  eV     1   --> A_1  D_1  S_1  

 **************************************************************************

 **************************************************************************

                    xk=(   0.28000,   0.16166,   0.00000  )

     Band symmetry, C_2v (mm2)  point group:

     e(  1 -  1) =    -20.04203  eV     1   --> A_1  D_1  S_1  
     e(  2 -  2) =    -10.58853  eV     1   --> A_1  D_1  S_1  
     e(  3 -  3) =     -7.81764  eV     1   --> B_2  D_4  S_4  
     e(  4 -  4) =     -7.70636  eV     1   --> B_1  D_3  S_3  
     e(  5 -  5) =      3.36324  eV     1   --> A_1  D_1  S_1  
     e(  6 -  6) =      3.90894  eV     1   --> B_2  D_4  S_4  
     e(  7 -  7) =      4.19969  eV     1   --> B_2  D_4  S_4  
     e(  8 -  8) =      4.21598  eV     1   --> A_1  D_1  S_1  

 **************************************************************************

 **************************************************************************

                    xk=(   0.27000,   0.15588,   0.00000  )

     Band symmetry, C_2v (mm2)  point group:

     e(  1 -  1) =    -20.16901  eV     1   --> A_1  D_1  S_1  
     e(  2 -  2) =    -10.32333  eV     1   --> A_1  D_1  S_1  
     e(  3 -  3) =     -7.96331  eV     1   --> B_2  D_4  S_4  
     e(  4 -  4) =     -7.61282  eV     1   --> B_1  D_3  S_3  
     e(  5 -  5) =      3.18751  eV     1   --> A_1  D_1  S_1  
     e(  6 -  6) =      3.84817  eV     1   --> B_2  D_4  S_4  
     e(  7 -  7) =      4.03575  eV     1   --> A_1  D_1  S_1  
     e(  8 -  8) =      4.34982  eV     1   --> B_2  D_4  S_4  

 **************************************************************************

 **************************************************************************

                    xk=(   0.26000,   0.15011,   0.00000  )

     Band symmetry, C_2v (mm2)  point group:

     e(  1 -  1) =    -20.29160  eV     1   --> A_1  D_1  S_1  
     e(  2 -  2) =    -10.05863  eV     1   --> A_1  D_1  S_1  
     e(  3 -  3) =     -8.10460  eV     1   --> B_2  D_4  S_4  
     e(  4 -  4) =     -7.51654  eV     1   --> B_1  D_3  S_3  
     e(  5 -  5) =      3.01802  eV     1   --> A_1  D_1  S_1  
     e(  6 -  6) =      3.69744  eV     1   --> B_2  D_4  S_4  
     e(  7 -  7) =      3.86202  eV     1   --> A_1  D_1  S_1  
     e(  8 -  8) =      4.57006  eV     1   --> B_2  D_4  S_4  

 **************************************************************************

 **************************************************************************

                    xk=(   0.25000,   0.14434,   0.00000  )

     Band symmetry, C_2v (mm2)  point group:

     e(  1 -  1) =    -20.40978  eV     1   --> A_1  D_1  S_1  
     e(  2 -  2) =     -9.79483  eV     1   --> A_1  D_1  S_1  
     e(  3 -  3) =     -8.24137  eV     1   --> B_2  D_4  S_4  
     e(  4 -  4) =     -7.41775  eV     1   --> B_1  D_3  S_3  
     e(  5 -  5) =      2.85479  eV     1   --> A_1  D_1  S_1  
     e(  6 -  6) =      3.53923  eV     1   --> B_2  D_4  S_4  
     e(  7 -  7) =      3.69480  eV     1   --> A_1  D_1  S_1  
     e(  8 -  8) =      4.62653  eV     1   --> B_2  D_4  S_4  

 **************************************************************************

 **************************************************************************

                    xk=(   0.24000,   0.13856,   0.00000  )

     Band symmetry, C_2v (mm2)  point group:

     e(  1 -  1) =    -20.52350  eV     1   --> A_1  D_1  S_1  
     e(  2 -  2) =     -9.53235  eV     1   --> A_1  D_1  S_1  
     e(  3 -  3) =     -8.37347  eV     1   --> B_2  D_4  S_4  
     e(  4 -  4) =     -7.31672  eV     1   --> B_1  D_3  S_3  
     e(  5 -  5) =      2.69786  eV     1   --> A_1  D_1  S_1  
     e(  6 -  6) =      3.38366  eV     1   --> B_2  D_4  S_4  
     e(  7 -  7) =      3.53412  eV     1   --> A_1  D_1  S_1  
     e(  8 -  8) =      4.50365  eV     1   --> B_2  D_4  S_4  

 **************************************************************************

 **************************************************************************

                    xk=(   0.23000,   0.13279,   0.00000  )

     Band symmetry, C_2v (mm2)  point group:

     e(  1 -  1) =    -20.63275  eV     1   --> A_1  D_1  S_1  
     e(  2 -  2) =     -9.27165  eV     1   --> A_1  D_1  S_1  
     e(  3 -  3) =     -8.50080  eV     1   --> B_2  D_4  S_4  
     e(  4 -  4) =     -7.21373  eV     1   --> B_1  D_3  S_3  
     e(  5 -  5) =      2.54725  eV     1   --> A_1  D_1  S_1  
     e(  6 -  6) =      3.23298  eV     1   --> B_2  D_4  S_4  
     e(  7 -  7) =      3.37997  eV     1   --> A_1  D_1  S_1  
     e(  8 -  8) =      4.36066  eV     1   --> B_2  D_4  S_4  

 **************************************************************************

 **************************************************************************

                    xk=(   0.22000,   0.12702,   0.00000  )

     Band symmetry, C_2v (mm2)  point group:

     e(  1 -  1) =    -20.73749  eV     1   --> A_1  D_1  S_1  
     e(  2 -  2) =     -9.01321  eV     1   --> A_1  D_1  S_1  
     e(  3 -  3) =     -8.62326  eV     1   --> B_2  D_4  S_4  
     e(  4 -  4) =     -7.10908  eV     1   --> B_1  D_3  S_3  
     e(  5 -  5) =      2.40297  eV     1   --> A_1  D_1  S_1  
     e(  6 -  6) =      3.08799  eV     1   --> B_2  D_4  S_4  
     e(  7 -  7) =      3.23238  eV     1   --> A_1  D_1  S_1  
     e(  8 -  8) =      4.21885  eV     1   --> B_2  D_4  S_4  

 **************************************************************************

 **************************************************************************

                    xk=(   0.21000,   0.12124,   0.00000  )

     Band symmetry, C_2v (mm2)  point group:

     e(  1 -  1) =    -20.83772  eV     1   --> A_1  D_1  S_1  
     e(  2 -  2) =     -8.75757  eV     1   --> A_1  D_1  S_1  
     e(  3 -  3) =     -8.74074  eV     1   --> B_2  D_4  S_4  
     e(  4 -  4) =     -7.00312  eV     1   --> B_1  D_3  S_3  
     e(  5 -  5) =      2.26505  eV     1   --> A_1  D_1  S_1  
     e(  6 -  6) =      2.94903  eV     1   --> B_2  D_4  S_4  
     e(  7 -  7) =      3.09133  eV     1   --> A_1  D_1  S_1  
     e(  8 -  8) =      4.08165  eV     1   --> B_2  D_4  S_4  

 **************************************************************************

 **************************************************************************

                    xk=(   0.20000,   0.11547,   0.00000  )

     Band symmetry, C_2v (mm2)  point group:

     e(  1 -  1) =    -20.93340  eV     1   --> A_1  D_1  S_1  
     e(  2 -  2) =     -8.85318  eV     1   --> B_2  D_4  S_4  
     e(  3 -  3) =     -8.50530  eV     1   --> A_1  D_1  S_1  
     e(  4 -  4) =     -6.89622  eV     1   --> B_1  D_3  S_3  
     e(  5 -  5) =      2.13349  eV     1   --> A_1  D_1  S_1  
     e(  6 -  6) =      2.81627  eV     1   --> B_2  D_4  S_4  
     e(  7 -  7) =      2.95683  eV     1   --> A_1  D_1  S_1  
     e(  8 -  8) =      3.95004  eV     1   --> B_2  D_4  S_4  

 **************************************************************************

 **************************************************************************

                    xk=(   0.19000,   0.10970,   0.00000  )

     Band symmetry, C_2v (mm2)  point group:

     e(  1 -  1) =    -21.02453  eV     1   --> A_1  D_1  S_1  
     e(  2 -  2) =     -8.96048  eV     1   --> B_2  D_4  S_4  
     e(  3 -  3) =     -8.25700  eV     1   --> A_1  D_1  S_1  
     e(  4 -  4) =     -6.78876  eV     1   --> B_1  D_3  S_3  
     e(  5 -  5) =      2.00831  eV     1   --> A_1  D_1  S_1  
     e(  6 -  6) =      2.68981  eV     1   --> B_2  D_4  S_4  
     e(  7 -  7) =      2.82889  eV     1   --> A_1  D_1  S_1  
     e(  8 -  8) =      3.82444  eV     1   --> B_2  D_4  S_4  

 **************************************************************************

 **************************************************************************

                    xk=(   0.18000,   0.10392,   0.00000  )

     Band symmetry, C_2v (mm2)  point group:

     e(  1 -  1) =    -21.11107  eV     1   --> A_1  D_1  S_1  
     e(  2 -  2) =     -9.06260  eV     1   --> B_2  D_4  S_4  
     e(  3 -  3) =     -8.01334  eV     1   --> A_1  D_1  S_1  
     e(  4 -  4) =     -6.68120  eV     1   --> B_1  D_3  S_3  
     e(  5 -  5) =      1.88951  eV     1   --> A_1  D_1  S_1  
     e(  6 -  6) =      2.56972  eV     1   --> B_2  D_4  S_4  
     e(  7 -  7) =      2.70751  eV     1   --> A_1  D_1  S_1  
     e(  8 -  8) =      3.70502  eV     1   --> B_2  D_4  S_4  

 **************************************************************************

 **************************************************************************

                    xk=(   0.17000,   0.09815,   0.00000  )

     Band symmetry, C_2v (mm2)  point group:

     e(  1 -  1) =    -21.19302  eV     1   --> A_1  D_1  S_1  
     e(  2 -  2) =     -9.15947  eV     1   --> B_2  D_4  S_4  
     e(  3 -  3) =     -7.77502  eV     1   --> A_1  D_1  S_1  
     e(  4 -  4) =     -6.57400  eV     1   --> B_1  D_3  S_3  
     e(  5 -  5) =      1.77711  eV     1   --> A_1  D_1  S_1  
     e(  6 -  6) =      2.45602  eV     1   --> B_2  D_4  S_4  
     e(  7 -  7) =      2.59268  eV     1   --> A_1  D_1  S_1  
     e(  8 -  8) =      3.59189  eV     1   --> B_2  D_4  S_4  

 **************************************************************************

 **************************************************************************

                    xk=(   0.16000,   0.09238,   0.00000  )

     Band symmetry, C_2v (mm2)  point group:

     e(  1 -  1) =    -21.27035  eV     1   --> A_1  D_1  S_1  
     e(  2 -  2) =     -9.25104  eV     1   --> B_2  D_4  S_4  
     e(  3 -  3) =     -7.54278  eV     1   --> A_1  D_1  S_1  
     e(  4 -  4) =     -6.46767  eV     1   --> B_1  D_3  S_3  
     e(  5 -  5) =      1.67110  eV     1   --> A_1  D_1  S_1  
     e(  6 -  6) =      2.34875  eV     1   --> B_2  D_4  S_4  
     e(  7 -  7) =      2.48442  eV     1   --> A_1  D_1  S_1  
     e(  8 -  8) =      3.48511  eV     1   --> B_2  D_4  S_4  

 **************************************************************************

 **************************************************************************

                    xk=(   0.15000,   0.08660,   0.00000  )

     Band symmetry, C_2v (mm2)  point group:

     e(  1 -  1) =    -21.34307  eV     1   --> A_1  D_1  S_1  
     e(  2 -  2) =     -9.33726  eV     1   --> B_2  D_4  S_4  
     e(  3 -  3) =     -7.31745  eV     1   --> A_1  D_1  S_1  
     e(  4 -  4) =     -6.36277  eV     1   --> B_1  D_3  S_3  
     e(  5 -  5) =      1.57150  eV     1   --> A_1  D_1  S_1  
     e(  6 -  6) =      2.24793  eV     1   --> B_2  D_4  S_4  
     e(  7 -  7) =      2.38271  eV     1   --> A_1  D_1  S_1  
     e(  8 -  8) =      3.38471  eV     1   --> B_2  D_4  S_4  

 **************************************************************************

 **************************************************************************

                    xk=(   0.14000,   0.08083,   0.00000  )

     Band symmetry, C_2v (mm2)  point group:

     e(  1 -  1) =    -21.41115  eV     1   --> A_1  D_1  S_1  
     e(  2 -  2) =     -9.41810  eV     1   --> B_2  D_4  S_4  
     e(  3 -  3) =     -7.09986  eV     1   --> A_1  D_1  S_1  
     e(  4 -  4) =     -6.25987  eV     1   --> B_1  D_3  S_3  
     e(  5 -  5) =      1.47832  eV     1   --> A_1  D_1  S_1  
     e(  6 -  6) =      2.15357  eV     1   --> B_2  D_4  S_4  
     e(  7 -  7) =      2.28757  eV     1   --> A_1  D_1  S_1  
     e(  8 -  8) =      3.29074  eV     1   --> B_2  D_4  S_4  

 **************************************************************************

 **************************************************************************

                    xk=(   0.13000,   0.07506,   0.00000  )

     Band symmetry, C_2v (mm2)  point group:

     e(  1 -  1) =    -21.47458  eV     1   --> A_1  D_1  S_1  
     e(  2 -  2) =     -9.49350  eV     1   --> B_2  D_4  S_4  
     e(  3 -  3) =     -6.89094  eV     1   --> A_1  D_1  S_1  
     e(  4 -  4) =     -6.15960  eV     1   --> B_1  D_3  S_3  
     e(  5 -  5) =      1.39154  eV     1   --> A_1  D_1  S_1  
     e(  6 -  6) =      2.06569  eV     1   --> B_2  D_4  S_4  
     e(  7 -  7) =      2.19898  eV     1   --> A_1  D_1  S_1  
     e(  8 -  8) =      3.20320  eV     1   --> B_2  D_4  S_4  

 **************************************************************************

 **************************************************************************

                    xk=(   0.12000,   0.06928,   0.00000  )

     Band symmetry, C_2v (mm2)  point group:

     e(  1 -  1) =    -21.53335  eV     1   --> A_1  D_1  S_1  
     e(  2 -  2) =     -9.56344  eV     1   --> B_2  D_4  S_4  
     e(  3 -  3) =     -6.69161  eV     1   --> A_1  D_1  S_1  
     e(  4 -  4) =     -6.06262  eV     1   --> B_1  D_3  S_3  
     e(  5 -  5) =      1.31119  eV     1   --> A_1  D_1  S_1  
     e(  6 -  6) =      1.98430  eV     1   --> B_2  D_4  S_4  
     e(  7 -  7) =      2.11696  eV     1   --> A_1  D_1  S_1  
     e(  8 -  8) =      3.12211  eV     1   --> B_2  D_4  S_4  

 **************************************************************************

 **************************************************************************

                    xk=(   0.11000,   0.06351,   0.00000  )

     Band symmetry, C_2v (mm2)  point group:

     e(  1 -  1) =    -21.58745  eV     1   --> A_1  D_1  S_1  
     e(  2 -  2) =     -9.62789  eV     1   --> B_2  D_4  S_4  
     e(  3 -  3) =     -6.50288  eV     1   --> A_1  D_1  S_1  
     e(  4 -  4) =     -5.96962  eV     1   --> B_1  D_3  S_3  
     e(  5 -  5) =      1.23726  eV     1   --> A_1  D_1  S_1  
     e(  6 -  6) =      1.90939  eV     1   --> B_2  D_4  S_4  
     e(  7 -  7) =      2.04151  eV     1   --> A_1  D_1  S_1  
     e(  8 -  8) =      3.04748  eV     1   --> B_2  D_4  S_4  

 **************************************************************************

 **************************************************************************

                    xk=(   0.10000,   0.05774,   0.00000  )

     Band symmetry, C_2v (mm2)  point group:

     e(  1 -  1) =    -21.63688  eV     1   --> A_1  D_1  S_1  
     e(  2 -  2) =     -9.68682  eV     1   --> B_2  D_4  S_4  
     e(  3 -  3) =     -6.32576  eV     1   --> A_1  D_1  S_1  
     e(  4 -  4) =     -5.88132  eV     1   --> B_1  D_3  S_3  
     e(  5 -  5) =      1.16976  eV     1   --> A_1  D_1  S_1  
     e(  6 -  6) =      1.84099  eV     1   --> B_2  D_4  S_4  
     e(  7 -  7) =      1.97261  eV     1   --> A_1  D_1  S_1  
     e(  8 -  8) =      2.97932  eV     1   --> B_2  D_4  S_4  

 **************************************************************************

 **************************************************************************

                    xk=(   0.09000,   0.05196,   0.00000  )

     Band symmetry, C_2v (mm2)  point group:

     e(  1 -  1) =    -21.68162  eV     1   --> A_1  D_1  S_1  
     e(  2 -  2) =     -9.74020  eV     1   --> B_2  D_4  S_4  
     e(  3 -  3) =     -6.16129  eV     1   --> A_1  D_1  S_1  
     e(  4 -  4) =     -5.79844  eV     1   --> B_1  D_3  S_3  
     e(  5 -  5) =      1.10868  eV     1   --> A_1  D_1  S_1  
     e(  6 -  6) =      1.77909  eV     1   --> B_2  D_4  S_4  
     e(  7 -  7) =      1.91028  eV     1   --> A_1  D_1  S_1  
     e(  8 -  8) =      2.91764  eV     1   --> B_2  D_4  S_4  

 **************************************************************************

 **************************************************************************

                    xk=(   0.08000,   0.04619,   0.00000  )

     Band symmetry, C_2v (mm2)  point group:

     e(  1 -  1) =    -21.72167  eV     1   --> A_1  D_1  S_1  
     e(  2 -  2) =     -9.78802  eV     1   --> B_2  D_4  S_4  
     e(  3 -  3) =     -6.01052  eV     1   --> A_1  D_1  S_1  
     e(  4 -  4) =     -5.72172  eV     1   --> B_1  D_3  S_3  
     e(  5 -  5) =      1.05404  eV     1   --> A_1  D_1  S_1  
     e(  6 -  6) =      1.72369  eV     1   --> B_2  D_4  S_4  
     e(  7 -  7) =      1.85450  eV     1   --> A_1  D_1  S_1  
     e(  8 -  8) =      2.86244  eV     1   --> B_2  D_4  S_4  

 **************************************************************************

 **************************************************************************

                    xk=(   0.07000,   0.04041,   0.00000  )

     Band symmetry, C_2v (mm2)  point group:

     e(  1 -  1) =    -21.75703  eV     1   --> A_1  D_1  S_1  
     e(  2 -  2) =     -9.83025  eV     1   --> B_2  D_4  S_4  
     e(  3 -  3) =     -5.87449  eV     1   --> A_1  D_1  S_1  
     e(  4 -  4) =     -5.65190  eV     1   --> B_1  D_3  S_3  
     e(  5 -  5) =      1.00582  eV     1   --> A_1  D_1  S_1  
     e(  6 -  6) =      1.67481  eV     1   --> B_2  D_4  S_4  
     e(  7 -  7) =      1.80529  eV     1   --> A_1  D_1  S_1  
     e(  8 -  8) =      2.81372  eV     1   --> B_2  D_4  S_4  

 **************************************************************************

 **************************************************************************

                    xk=(   0.06000,   0.03464,   0.00000  )

     Band symmetry, C_2v (mm2)  point group:

     e(  1 -  1) =    -21.78768  eV     1   --> A_1  D_1  S_1  
     e(  2 -  2) =     -9.86689  eV     1   --> B_2  D_4  S_4  
     e(  3 -  3) =     -5.75419  eV     1   --> A_1  D_1  S_1  
     e(  4 -  4) =     -5.58969  eV     1   --> B_1  D_3  S_3  
     e(  5 -  5) =      0.96403  eV     1   --> A_1  D_1  S_1  
     e(  6 -  6) =      1.63243  eV     1   --> B_2  D_4  S_4  
     e(  7 -  7) =      1.76265  eV     1   --> A_1  D_1  S_1  
     e(  8 -  8) =      2.77149  eV     1   --> B_2  D_4  S_4  

 **************************************************************************

 **************************************************************************

                    xk=(   0.05000,   0.02887,   0.00000  )

     Band symmetry, C_2v (mm2)  point group:

     e(  1 -  1) =    -21.81362  eV     1   --> A_1  D_1  S_1  
     e(  2 -  2) =     -9.89791  eV     1   --> B_2  D_4  S_4  
     e(  3 -  3) =     -5.65057  eV     1   --> A_1  D_1  S_1  
     e(  4 -  4) =     -5.53575  eV     1   --> B_1  D_3  S_3  
     e(  5 -  5) =      0.92867  eV     1   --> A_1  D_1  S_1  
     e(  6 -  6) =      1.59658  eV     1   --> B_2  D_4  S_4  
     e(  7 -  7) =      1.72656  eV     1   --> A_1  D_1  S_1  
     e(  8 -  8) =      2.73576  eV     1   --> B_2  D_4  S_4  

 **************************************************************************

 **************************************************************************

                    xk=(   0.04000,   0.02309,   0.00000  )

     Band symmetry, C_2v (mm2)  point group:

     e(  1 -  1) =    -21.83485  eV     1   --> A_1  D_1  S_1  
     e(  2 -  2) =     -9.92330  eV     1   --> B_2  D_4  S_4  
     e(  3 -  3) =     -5.56450  eV     1   --> A_1  D_1  S_1  
     e(  4 -  4) =     -5.49069  eV     1   --> B_1  D_3  S_3  
     e(  5 -  5) =      0.89975  eV     1   --> A_1  D_1  S_1  
     e(  6 -  6) =      1.56724  eV     1   --> B_2  D_4  S_4  
     e(  7 -  7) =      1.69704  eV     1   --> A_1  D_1  S_1  
     e(  8 -  8) =      2.70651  eV     1   --> B_2  D_4  S_4  

 **************************************************************************

 **************************************************************************

                    xk=(   0.03000,   0.01732,   0.00000  )

     Band symmetry, C_2v (mm2)  point group:

     e(  1 -  1) =    -21.85137  eV     1   --> A_1  D_1  S_1  
     e(  2 -  2) =     -9.94307  eV     1   --> B_2  D_4  S_4  
     e(  3 -  3) =     -5.49671  eV     1   --> A_1  D_1  S_1  
     e(  4 -  4) =     -5.45505  eV     1   --> B_1  D_3  S_3  
     e(  5 -  5) =      0.87725  eV     1   --> A_1  D_1  S_1  
     e(  6 -  6) =      1.54441  eV     1   --> B_2  D_4  S_4  
     e(  7 -  7) =      1.67408  eV     1   --> A_1  D_1  S_1  
     e(  8 -  8) =      2.68377  eV     1   --> B_2  D_4  S_4  

 **************************************************************************

 **************************************************************************

                    xk=(   0.02000,   0.01155,   0.00000  )

     Band symmetry, C_2v (mm2)  point group:

     e(  1 -  1) =    -21.86317  eV     1   --> A_1  D_1  S_1  
     e(  2 -  2) =     -9.95719  eV     1   --> B_2  D_4  S_4  
     e(  3 -  3) =     -5.44783  eV     1   --> A_1  D_1  S_1  
     e(  4 -  4) =     -5.42927  eV     1   --> B_1  D_3  S_3  
     e(  5 -  5) =      0.86118  eV     1   --> A_1  D_1  S_1  
     e(  6 -  6) =      1.52811  eV     1   --> B_2  D_4  S_4  
     e(  7 -  7) =      1.65767  eV     1   --> A_1  D_1  S_1  
     e(  8 -  8) =      2.66752  eV     1   --> B_2  D_4  S_4  

 **************************************************************************

 **************************************************************************

                    xk=(   0.01000,   0.00577,   0.00000  )

     Band symmetry, C_2v (mm2)  point group:

     e(  1 -  1) =    -21.87025  eV     1   --> A_1  D_1  S_1  
     e(  2 -  2) =     -9.96566  eV     1   --> B_2  D_4  S_4  
     e(  3 -  3) =     -5.41831  eV     1   --> A_1  D_1  S_1  
     e(  4 -  4) =     -5.41366  eV     1   --> B_1  D_3  S_3  
     e(  5 -  5) =      0.85154  eV     1   --> A_1  D_1  S_1  
     e(  6 -  6) =      1.51833  eV     1   --> B_2  D_4  S_4  
     e(  7 -  7) =      1.64783  eV     1   --> A_1  D_1  S_1  
     e(  8 -  8) =      2.65777  eV     1   --> B_2  D_4  S_4  

 **************************************************************************

 **************************************************************************

                    xk=(   0.00000,   0.00000,   0.00000  )

     point group D_6h(6/mmm)
     there are 12 classes
     the character table:

       E     2C6   2C3   C2    3C2'  3C2'' i     2S3   2S6   s_h   3s_d  3s_v 
A_1g   1.00  1.00  1.00  1.00  1.00  1.00  1.00  1.00  1.00  1.00  1.00  1.00
A_2g   1.00  1.00  1.00  1.00 -1.00 -1.00  1.00  1.00  1.00  1.00 -1.00 -1.00
B_1g   1.00 -1.00  1.00 -1.00  1.00 -1.00  1.00 -1.00  1.00 -1.00  1.00 -1.00
B_2g   1.00 -1.00  1.00 -1.00 -1.00  1.00  1.00 -1.00  1.00 -1.00 -1.00  1.00
E_1g   2.00  1.00 -1.00 -2.00  0.00  0.00  2.00  1.00 -1.00 -2.00  0.00  0.00
E_2g   2.00 -1.00 -1.00  2.00  0.00  0.00  2.00 -1.00 -1.00  2.00  0.00  0.00
A_1u   1.00  1.00  1.00  1.00  1.00  1.00 -1.00 -1.00 -1.00 -1.00 -1.00 -1.00
A_2u   1.00  1.00  1.00  1.00 -1.00 -1.00 -1.00 -1.00 -1.00 -1.00  1.00  1.00
B_1u   1.00 -1.00  1.00 -1.00  1.00 -1.00 -1.00  1.00 -1.00  1.00 -1.00  1.00
B_2u   1.00 -1.00  1.00 -1.00 -1.00  1.00 -1.00  1.00 -1.00  1.00  1.00 -1.00
E_1u   2.00  1.00 -1.00 -2.00  0.00  0.00 -2.00 -1.00  1.00  2.00  0.00  0.00
E_2u   2.00 -1.00 -1.00  2.00  0.00  0.00 -2.00  1.00  1.00 -2.00  0.00  0.00

     the symmetry operations in each class and the name of the first element:

     E        1
                                                                 
     2C6      5    6
                                                                 
     2C3      7    8
                                                                 
     C2       2
                                                                 
     3C2'     4   12   11
                                                                 
     3C2''    3    9   10
                                                                 
     i       13
                                                                 
     2S3     17   18
                                                                 
     2S6     19   20
                                                                 
     s_h     14
                                                                 
     3s_d    16   24   23
                                                                 
     3s_v    15   21   22
                                                                 

     Band symmetry, D_6h(6/mmm) point group:

     e(  1 -  1) =    -21.87261  eV     1   --> A_1g           
     e(  2 -  2) =     -9.96849  eV     1   --> A_2u           
     e(  3 -  4) =     -5.40844  eV     2   --> E_2g           
     e(  5 -  5) =      0.84832  eV     1   --> A_1g           
     e(  6 -  6) =      1.51507  eV     1   --> A_2u           
     e(  7 -  7) =      1.64455  eV     1   --> A_1g           
     e(  8 -  8) =      2.65452  eV     1   --> A_2u           

 **************************************************************************

     BANDS        :   1m21.94s CPU   1m32.85s WALL


   This run was terminated on:  12:17:53   4Aug2023            

=------------------------------------------------------------------------------=
   JOB DONE.
=------------------------------------------------------------------------------=
