
     Program PWSCF v.6.7MaX starts on  4Aug2023 at 11:43:30 

     This program is part of the open-source Quantum ESPRESSO suite
     for quantum simulation of materials; please cite
         "P. Giannozzi et al., J. Phys.:Condens. Matter 21 395502 (2009);
         "P. Giannozzi et al., J. Phys.:Condens. Matter 29 465901 (2017);
          URL http://www.quantum-espresso.org", 
     in publications or presentations arising from this work. More details at
     http://www.quantum-espresso.org/quote

     Parallel version (MPI), running on     1 processors

     MPI processes distributed on     1 nodes
     Waiting for input...
     Reading input from standard input

     Current dimensions of program PWSCF are:
     Max number of different atomic species (ntypx) = 10
     Max number of k-points (npk) =  40000
     Max angular momentum in pseudopotentials (lmaxx) =  3
     file C.pbe-n-kjpaw_psl.1.0.0.UPF: wavefunction(s)  2S 2P renormalized

     Subspace diagonalization in iterative solution of the eigenvalue problem:
     a serial algorithm will be used


     G-vector sticks info
     --------------------
     sticks:   dense  smooth     PW     G-vecs:    dense   smooth      PW
     Sum         595     595    187                96043    96043   15341



     bravais-lattice index     =           12
     lattice parameter (alat)  =       4.6620  a.u.
     unit-cell volume          =     711.3700 (a.u.)^3
     number of atoms/cell      =            2
     number of atomic types    =            1
     number of electrons       =         8.00
     number of Kohn-Sham states=            8
     kinetic-energy cutoff     =     100.0000  Ry
     charge density cutoff     =     400.0000  Ry
     scf convergence threshold =      1.0E-10
     mixing beta               =       0.5000
     number of iterations used =            8  plain     mixing
     Exchange-correlation= SLA  PW   PBX  PBC
                           (   1   4   3   4   0   0   0)

     celldm(1)=   4.661954  celldm(2)=   1.000000  celldm(3)=   8.107013
     celldm(4)=  -0.500000  celldm(5)=   0.000000  celldm(6)=   0.000000

     crystal axes: (cart. coord. in units of alat)
               a(1) = (   1.000000   0.000000   0.000000 )  
               a(2) = (  -0.500000   0.866025   0.000000 )  
               a(3) = (   0.000000   0.000000   8.107013 )  

     reciprocal axes: (cart. coord. in units 2 pi/alat)
               b(1) = (  1.000000  0.577350 -0.000000 )  
               b(2) = (  0.000000  1.154701  0.000000 )  
               b(3) = (  0.000000 -0.000000  0.123350 )  


     PseudoPot. # 1 for C  read from file:
     ./Pseudo/C.pbe-n-kjpaw_psl.1.0.0.UPF
     MD5 check sum: ecdf03482cb4269f2fcfa842d572f30f
     Pseudo is Projector augmented-wave + core cor, Zval =  4.0
     Generated using &quot;atomic&quot; code by A. Dal Corso  v.6.3
     Shape of augmentation charge: PSQ
     Using radial grid of 1073 points,  4 beta functions with: 
                l(1) =   0
                l(2) =   0
                l(3) =   1
                l(4) =   1
     Q(r) pseudized with 0 coefficients 


     atomic species   valence    mass     pseudopotential
        C              4.00    12.01070     C ( 1.00)

     24 Sym. Ops., with inversion, found (18 have fractional translation)



   Cartesian axes

     site n.     atom                  positions (alat units)
         1           C   tau(   1) = (   0.0000000   0.0000000   2.0267531  )
         2           C   tau(   2) = (  -0.0000000   0.5773503   2.0267531  )

     number of k points=    37
                       cart. coord. in units 2pi/alat
        k(    1) = (   0.0000000   0.0000000   0.0000000), wk =   0.0061728
        k(    2) = (   0.0000000   0.0641500   0.0000000), wk =   0.0370370
        k(    3) = (   0.0000000   0.1283001   0.0000000), wk =   0.0370370
        k(    4) = (   0.0000000   0.1924501   0.0000000), wk =   0.0370370
        k(    5) = (   0.0000000   0.2566001   0.0000000), wk =   0.0370370
        k(    6) = (   0.0000000   0.3207501   0.0000000), wk =   0.0370370
        k(    7) = (   0.0000000   0.3849002   0.0000000), wk =   0.0370370
        k(    8) = (   0.0000000   0.4490502   0.0000000), wk =   0.0370370
        k(    9) = (   0.0000000   0.5132002   0.0000000), wk =   0.0370370
        k(   10) = (   0.0000000  -0.5773503   0.0000000), wk =   0.0185185
        k(   11) = (   0.0555556   0.0962250   0.0000000), wk =   0.0370370
        k(   12) = (   0.0555556   0.1603751   0.0000000), wk =   0.0740741
        k(   13) = (   0.0555556   0.2245251   0.0000000), wk =   0.0740741
        k(   14) = (   0.0555556   0.2886751   0.0000000), wk =   0.0740741
        k(   15) = (   0.0555556   0.3528252   0.0000000), wk =   0.0740741
        k(   16) = (   0.0555556   0.4169752   0.0000000), wk =   0.0740741
        k(   17) = (   0.0555556   0.4811252   0.0000000), wk =   0.0740741
        k(   18) = (   0.0555556   0.5452753   0.0000000), wk =   0.0740741
        k(   19) = (   0.1111111   0.1924501   0.0000000), wk =   0.0370370
        k(   20) = (   0.1111111   0.2566001   0.0000000), wk =   0.0740741
        k(   21) = (   0.1111111   0.3207501   0.0000000), wk =   0.0740741
        k(   22) = (   0.1111111   0.3849002   0.0000000), wk =   0.0740741
        k(   23) = (   0.1111111   0.4490502   0.0000000), wk =   0.0740741
        k(   24) = (   0.1111111   0.5132002   0.0000000), wk =   0.0740741
        k(   25) = (   0.1111111   0.5773503   0.0000000), wk =   0.0370370
        k(   26) = (   0.1666667   0.2886751   0.0000000), wk =   0.0370370
        k(   27) = (   0.1666667   0.3528252   0.0000000), wk =   0.0740741
        k(   28) = (   0.1666667   0.4169752   0.0000000), wk =   0.0740741
        k(   29) = (   0.1666667   0.4811252   0.0000000), wk =   0.0740741
        k(   30) = (   0.1666667   0.5452753   0.0000000), wk =   0.0740741
        k(   31) = (   0.2222222   0.3849002   0.0000000), wk =   0.0370370
        k(   32) = (   0.2222222   0.4490502   0.0000000), wk =   0.0740741
        k(   33) = (   0.2222222   0.5132002   0.0000000), wk =   0.0740741
        k(   34) = (   0.2222222   0.5773503   0.0000000), wk =   0.0370370
        k(   35) = (   0.2777778   0.4811252   0.0000000), wk =   0.0370370
        k(   36) = (   0.2777778   0.5452753   0.0000000), wk =   0.0740741
        k(   37) = (   0.3333333   0.5773503   0.0000000), wk =   0.0123457

     Dense  grid:    96043 G-vectors     FFT dimensions: (  30,  30, 250)

     Estimated max dynamical RAM per process >     180.45 MB

     Check: negative core charge=   -0.000002

     Initial potential from superposition of free atoms

     starting charge    7.99992, renormalised to    8.00000

     negative rho (up, down):  1.067E-04 0.000E+00
     Starting wfcs are    8 randomized atomic wfcs
     Checking if some PAW data can be deallocated... 

     total cpu time spent up to now is        8.8 secs

     Self-consistent Calculation

     iteration #  1     ecut=   100.00 Ry     beta= 0.50
     Davidson diagonalization with overlap
     ethr =  1.00E-02,  avg # of iterations =  6.1

     negative rho (up, down):  1.052E-04 0.000E+00

     total cpu time spent up to now is       40.9 secs

     total energy              =     -36.88176972 Ry
     estimated scf accuracy    <       0.19093686 Ry

     iteration #  2     ecut=   100.00 Ry     beta= 0.50
     Davidson diagonalization with overlap
     ethr =  2.39E-03,  avg # of iterations =  2.2

     negative rho (up, down):  1.183E-04 0.000E+00

     total cpu time spent up to now is       60.1 secs

     total energy              =     -36.88422557 Ry
     estimated scf accuracy    <       0.01967248 Ry

     iteration #  3     ecut=   100.00 Ry     beta= 0.50
     Davidson diagonalization with overlap
     ethr =  2.46E-04,  avg # of iterations =  9.2

     negative rho (up, down):  1.234E-04 0.000E+00

     total cpu time spent up to now is       98.2 secs

     total energy              =     -36.88790775 Ry
     estimated scf accuracy    <       0.00069322 Ry

     iteration #  4     ecut=   100.00 Ry     beta= 0.50
     Davidson diagonalization with overlap
     ethr =  8.67E-06,  avg # of iterations =  8.0

     negative rho (up, down):  1.256E-04 0.000E+00

     total cpu time spent up to now is      133.5 secs

     total energy              =     -36.88788277 Ry
     estimated scf accuracy    <       0.00039010 Ry

     iteration #  5     ecut=   100.00 Ry     beta= 0.50
     Davidson diagonalization with overlap
     ethr =  4.88E-06,  avg # of iterations =  3.1

     negative rho (up, down):  1.262E-04 0.000E+00

     total cpu time spent up to now is      153.0 secs

     total energy              =     -36.88795362 Ry
     estimated scf accuracy    <       0.00000173 Ry

     iteration #  6     ecut=   100.00 Ry     beta= 0.50
     Davidson diagonalization with overlap
     ethr =  2.16E-08,  avg # of iterations =  2.7

     negative rho (up, down):  1.265E-04 0.000E+00

     total cpu time spent up to now is      173.0 secs

     total energy              =     -36.88795438 Ry
     estimated scf accuracy    <       0.00000010 Ry

     iteration #  7     ecut=   100.00 Ry     beta= 0.50
     Davidson diagonalization with overlap
     ethr =  1.24E-09,  avg # of iterations =  2.2

     negative rho (up, down):  1.264E-04 0.000E+00

     total cpu time spent up to now is      194.4 secs

     total energy              =     -36.88795440 Ry
     estimated scf accuracy    <          3.3E-09 Ry

     iteration #  8     ecut=   100.00 Ry     beta= 0.50
     Davidson diagonalization with overlap
     ethr =  4.07E-11,  avg # of iterations =  3.1

     negative rho (up, down):  1.264E-04 0.000E+00

     total cpu time spent up to now is      216.4 secs

     total energy              =     -36.88795440 Ry
     estimated scf accuracy    <          6.3E-10 Ry

     iteration #  9     ecut=   100.00 Ry     beta= 0.50
     Davidson diagonalization with overlap
     ethr =  7.91E-12,  avg # of iterations =  2.0

     negative rho (up, down):  1.264E-04 0.000E+00

     total cpu time spent up to now is      237.6 secs

     End of self-consistent calculation

          k = 0.0000 0.0000 0.0000 ( 12127 PWs)   bands (ev):

   -21.8726  -9.9685  -5.4085  -5.4085   0.8483   1.5151   1.6446   2.6546

          k = 0.0000 0.0642 0.0000 ( 12075 PWs)   bands (ev):

   -21.7998  -9.8814  -5.7060  -5.5647   0.9475   1.6157   1.7458   2.7550

          k = 0.0000 0.1283 0.0000 ( 12079 PWs)   bands (ev):

   -21.5817  -9.6210  -6.5233  -5.9797   1.2452   1.9174   2.0496   3.0555

          k = 0.0000 0.1925 0.0000 ( 12065 PWs)   bands (ev):

   -21.2193  -9.1906  -7.6969  -6.5384   1.7411   2.4196   2.5559   3.5560

          k = 0.0000 0.2566 0.0000 ( 12037 PWs)   bands (ev):

   -20.7146  -9.0704  -8.5965  -7.1325   2.4345   3.1197   3.2647   4.2502

          k = 0.0000 0.3208 0.0000 ( 12045 PWs)   bands (ev):

   -20.0706 -10.5296  -7.8504  -7.6858   3.3237   3.9166   4.1755   4.2123

          k = 0.0000 0.3849 0.0000 ( 12033 PWs)   bands (ev):

   -19.2924 -11.9971  -8.1509  -6.9753   2.5518   4.4018   5.1418   5.2669

          k = 0.0000 0.4491 0.0000 ( 12005 PWs)   bands (ev):

   -18.3895 -13.4184  -8.4989  -6.0232   1.0805   5.1497   5.7170   6.4357

          k = 0.0000 0.5132 0.0000 ( 11990 PWs)   bands (ev):

   -17.3924 -14.7360  -8.7135  -5.1368  -0.1364   5.0569   7.1619   7.9180

          k = 0.0000-0.5774 0.0000 ( 11964 PWs)   bands (ev):

   -16.6390 -15.5977  -8.7859  -4.7128  -0.6735   5.0205   8.7235   8.8656

          k = 0.0556 0.0962 0.0000 ( 12075 PWs)   bands (ev):

   -21.6543  -9.7076  -6.2366  -5.8774   1.1460   1.8169   1.9483   2.9557

          k = 0.0556 0.1604 0.0000 ( 12072 PWs)   bands (ev):

   -21.3641  -9.3621  -7.1796  -6.4178   1.5429   2.2189   2.3534   3.3564

          k = 0.0556 0.2245 0.0000 ( 12053 PWs)   bands (ev):

   -20.9306  -8.8496  -8.4112  -7.0374   2.1378   2.8207   2.9611   3.9548

          k = 0.0556 0.2887 0.0000 ( 12038 PWs)   bands (ev):

   -20.3562  -9.8012  -8.1784  -7.6381   2.9296   3.6147   3.7709   4.6710

          k = 0.0556 0.3528 0.0000 ( 12032 PWs)   bands (ev):

   -19.6450 -11.2494  -8.1628  -7.3648   3.2630   3.9157   4.6431   4.7827

          k = 0.0556 0.4170 0.0000 ( 12019 PWs)   bands (ev):

   -18.8037 -12.6859  -8.5778  -6.4420   1.7668   5.0800   5.6003   5.8336

          k = 0.0556 0.4811 0.0000 ( 11987 PWs)   bands (ev):

   -17.8482 -14.0563  -8.8634  -5.4932   0.4017   5.4258   6.4858   7.2199

          k = 0.0556 0.5453 0.0000 ( 11971 PWs)   bands (ev):

   -16.8603 -15.2566  -9.0087  -4.7638  -0.5449   5.3570   8.0254   8.7782

          k = 0.1111 0.1925 0.0000 ( 12061 PWs)   bands (ev):

   -21.0027  -8.9343  -8.0791  -7.1219   2.0390   2.7207   2.8598   3.8558

          k = 0.1111 0.2566 0.0000 ( 12074 PWs)   bands (ev):

   -20.4995  -9.2148  -8.3436  -7.8622   2.7326   3.4210   3.5687   4.5515

          k = 0.1111 0.3208 0.0000 ( 12054 PWs)   bands (ev):

   -19.8579 -10.5263  -8.5030  -7.6017   3.6223   3.7968   4.3365   4.4799

          k = 0.1111 0.3849 0.0000 ( 12004 PWs)   bands (ev):

   -19.0831 -11.9094  -9.0126  -6.7304   2.3655   4.7047   5.4227   5.5929

          k = 0.1111 0.4491 0.0000 ( 11985 PWs)   bands (ev):

   -18.1853 -13.2815  -9.3823  -5.7788   0.9650   5.9622   6.4277   6.7065

          k = 0.1111 0.5132 0.0000 ( 11973 PWs)   bands (ev):

   -17.1960 -14.5694  -9.6066  -4.8834  -0.2176   6.2889   7.4484   8.1547

          k = 0.1111 0.5774 0.0000 ( 11978 PWs)   bands (ev):

   -16.4518 -15.4154  -9.6817  -4.4468  -0.7530   6.2545   8.9797   9.1397

          k = 0.1667 0.2887 0.0000 ( 12047 PWs)   bands (ev):

   -19.9290 -10.1337  -8.7815  -7.6812   3.5243   4.0162   4.2192   4.3790

          k = 0.1667 0.3528 0.0000 ( 12027 PWs)   bands (ev):

   -19.2236 -11.2439  -9.5443  -6.8771   2.7332   4.5102   5.2109   5.3914

          k = 0.1667 0.4170 0.0000 ( 12001 PWs)   bands (ev):

   -18.3910 -12.4962 -10.0769  -5.9613   1.4134   5.6859   6.3860   6.6056

          k = 0.1667 0.4811 0.0000 ( 11982 PWs)   bands (ev):

   -17.4484 -13.7689 -10.4135  -5.0062   0.1645   7.0362   7.6689   7.7096

          k = 0.1667 0.5453 0.0000 ( 11973 PWs)   bands (ev):

   -16.4792 -14.9158 -10.5780  -4.2438  -0.7530   7.5729   8.5767   8.9704

          k = 0.2222 0.3849 0.0000 ( 12029 PWs)   bands (ev):

   -18.4600 -12.0429 -10.5111  -6.0238   1.5891   5.5889   6.2759   6.5046

          k = 0.2222 0.4491 0.0000 ( 12001 PWs)   bands (ev):

   -17.5793 -13.0414 -11.1688  -5.0801   0.4244   6.8502   7.4678   7.8186

          k = 0.2222 0.5132 0.0000 ( 11961 PWs)   bands (ev):

   -16.6149 -14.1515 -11.5095  -4.1527  -0.6435   8.2687   8.4875   9.1214

          k = 0.2222 0.5774 0.0000 ( 11968 PWs)   bands (ev):

   -15.8910 -14.9362 -11.6142  -3.6541  -1.1905   8.7740   9.0526   9.6935

          k = 0.2778 0.4811 0.0000 ( 11969 PWs)   bands (ev):

   -16.6692 -13.6702 -12.0453  -4.1300  -0.5811   8.1765   8.2971   9.2306

          k = 0.2778 0.5453 0.0000 ( 11959 PWs)   bands (ev):

   -15.7373 -14.4819 -12.4753  -3.2549  -1.4788   8.4025   9.5828  10.3857

          k = 0.3333 0.5774 0.0000 ( 11898 PWs)   bands (ev):

   -14.9605 -14.9605 -12.9178  -2.3530  -2.3530   8.2609  10.5124  10.5124

     highest occupied, lowest unoccupied level (ev):    -2.3530   -2.3530

!    total energy              =     -36.88795440 Ry

     total all-electron energy =      -152.416149 Ry
     estimated scf accuracy    <          3.0E-12 Ry

     The total energy is the sum of the following terms:
     one-electron contribution =    -223.56904369 Ry
     hartree contribution      =     113.21746623 Ry
     xc contribution           =      -9.27224821 Ry
     ewald contribution        =      95.06982811 Ry
     one-center paw contrib.   =     -12.33395684 Ry

     convergence has been achieved in   9 iterations

     Writing output data file ./tmp/graphene1.save/

     init_run     :      8.44s CPU      8.69s WALL (       1 calls)
     electrons    :    225.71s CPU    228.90s WALL (       1 calls)

     Called by init_run:
     wfcinit      :      7.17s CPU      7.25s WALL (       1 calls)
     potinit      :      0.45s CPU      0.49s WALL (       1 calls)
     hinit0       :      0.57s CPU      0.58s WALL (       1 calls)

     Called by electrons:
     c_bands      :    192.54s CPU    193.59s WALL (       9 calls)
     sum_band     :     28.74s CPU     29.91s WALL (       9 calls)
     v_of_rho     :      2.30s CPU      2.57s WALL (      10 calls)
     newd         :      1.00s CPU      1.43s WALL (      10 calls)
     PAW_pot      :      1.16s CPU      1.47s WALL (      10 calls)
     mix_rho      :      0.35s CPU      0.37s WALL (       9 calls)

     Called by c_bands:
     init_us_2    :      2.42s CPU      2.45s WALL (     703 calls)
     cegterg      :    188.41s CPU    189.44s WALL (     333 calls)

     Called by *egterg:
     cdiaghg      :      0.26s CPU      0.26s WALL (    1760 calls)
     h_psi        :    160.88s CPU    161.74s WALL (    1797 calls)
     s_psi        :      6.50s CPU      6.55s WALL (    1797 calls)
     g_psi        :      0.77s CPU      0.78s WALL (    1427 calls)

     Called by h_psi:
     h_psi:calbec :      6.10s CPU      6.12s WALL (    1797 calls)
     vloc_psi     :    147.72s CPU    148.51s WALL (    1797 calls)
     add_vuspsi   :      6.45s CPU      6.51s WALL (    1797 calls)

     General routines
     calbec       :      7.89s CPU      7.92s WALL (    2130 calls)
     fft          :      1.27s CPU      1.28s WALL (     110 calls)
     ffts         :      0.12s CPU      0.12s WALL (       9 calls)
     fftw         :    144.76s CPU    145.55s WALL (   19368 calls)

     Parallel routines

     PWSCF        :   3m54.33s CPU   3m59.10s WALL


   This run was terminated on:  11:47:30   4Aug2023            

=------------------------------------------------------------------------------=
   JOB DONE.
=------------------------------------------------------------------------------=
