
     Program BANDS v.6.7MaX starts on  5Aug2023 at 12:39:53 

     This program is part of the open-source Quantum ESPRESSO suite
     for quantum simulation of materials; please cite
         "P. Giannozzi et al., J. Phys.:Condens. Matter 21 395502 (2009);
         "P. Giannozzi et al., J. Phys.:Condens. Matter 29 465901 (2017);
          URL http://www.quantum-espresso.org", 
     in publications or presentations arising from this work. More details at
     http://www.quantum-espresso.org/quote

     Parallel version (MPI), running on     1 processors

     MPI processes distributed on     1 nodes

     Reading xml data from directory:

     ./tmp/graphene1.save/
     file C.pbe-n-kjpaw_psl.1.0.0.UPF: wavefunction(s)  2S 2P renormalized

     IMPORTANT: XC functional enforced from input :
     Exchange-correlation= PBE
                           (   1   4   3   4   0   0   0)
     Any further DFT definition will be discarded
     Please, verify this is what you really want


     G-vector sticks info
     --------------------
     sticks:   dense  smooth     PW     G-vecs:    dense   smooth      PW
     Sum         583     583    163                92515    92515   14837


     Check: negative core charge=   -0.000002

     negative rho (up, down):  1.299E-04 0.000E+00
     Reading collected, re-writing distributed wavefunctions
     high-symmetry point:  0.0000 0.0000 0.0000   x coordinate   0.0000
     high-symmetry point:  0.3333 0.5773 0.0000   x coordinate   0.6667
     high-symmetry point:  0.5000 0.2887 0.0000   x coordinate   1.0000
     high-symmetry point:  0.0000 0.0000 0.0000   x coordinate   1.5773

     Plottable bands (eV) written to file graphene.bands.gnu
     Bands written to file graphene.bands

 **************************************************************************

                    xk=(   0.00000,   0.00000,   0.00000  )

     point group D_6h(6/mmm)
     there are 12 classes
     the character table:

       E     2C6   2C3   C2    3C2'  3C2'' i     2S3   2S6   s_h   3s_d  3s_v 
A_1g   1.00  1.00  1.00  1.00  1.00  1.00  1.00  1.00  1.00  1.00  1.00  1.00
A_2g   1.00  1.00  1.00  1.00 -1.00 -1.00  1.00  1.00  1.00  1.00 -1.00 -1.00
B_1g   1.00 -1.00  1.00 -1.00  1.00 -1.00  1.00 -1.00  1.00 -1.00  1.00 -1.00
B_2g   1.00 -1.00  1.00 -1.00 -1.00  1.00  1.00 -1.00  1.00 -1.00 -1.00  1.00
E_1g   2.00  1.00 -1.00 -2.00  0.00  0.00  2.00  1.00 -1.00 -2.00  0.00  0.00
E_2g   2.00 -1.00 -1.00  2.00  0.00  0.00  2.00 -1.00 -1.00  2.00  0.00  0.00
A_1u   1.00  1.00  1.00  1.00  1.00  1.00 -1.00 -1.00 -1.00 -1.00 -1.00 -1.00
A_2u   1.00  1.00  1.00  1.00 -1.00 -1.00 -1.00 -1.00 -1.00 -1.00  1.00  1.00
B_1u   1.00 -1.00  1.00 -1.00  1.00 -1.00 -1.00  1.00 -1.00  1.00 -1.00  1.00
B_2u   1.00 -1.00  1.00 -1.00 -1.00  1.00 -1.00  1.00 -1.00  1.00  1.00 -1.00
E_1u   2.00  1.00 -1.00 -2.00  0.00  0.00 -2.00 -1.00  1.00  2.00  0.00  0.00
E_2u   2.00 -1.00 -1.00  2.00  0.00  0.00 -2.00  1.00  1.00 -2.00  0.00  0.00

     the symmetry operations in each class and the name of the first element:

     E        1
                                                                 
     2C6      5    6
                                                                 
     2C3      7    8
                                                                 
     C2       2
                                                                 
     3C2'     4   12   11
                                                                 
     3C2''    3    9   10
                                                                 
     i       13
                                                                 
     2S3     17   18
                                                                 
     2S6     19   20
                                                                 
     s_h     14
                                                                 
     3s_d    16   24   23
                                                                 
     3s_v    15   21   22
                                                                 

     Band symmetry, D_6h(6/mmm) point group:

     e(  1 -  1) =    -22.14086  eV     1   --> A_1g           
     e(  2 -  2) =    -10.16127  eV     1   --> A_2u           
     e(  3 -  4) =     -5.14882  eV     2   --> E_2g           
     e(  5 -  5) =      0.88249  eV     1   --> A_1g           
     e(  6 -  6) =      1.55655  eV     1   --> A_2u           
     e(  7 -  7) =      1.68445  eV     1   --> A_1g           
     e(  8 -  8) =      2.69450  eV     1   --> A_2u           

 **************************************************************************

 **************************************************************************

                    xk=(   0.00667,   0.01155,   0.00000  )

     point group C_2v (mm2) 
     there are  4 classes
     the character table:

       E     C2    s_v   s_v' 
A_1    1.00  1.00  1.00  1.00
A_2    1.00  1.00 -1.00 -1.00
B_1    1.00 -1.00  1.00 -1.00
B_2    1.00 -1.00 -1.00  1.00

     the symmetry operations in each class and the name of the first element:

     E        1
                                                                 
     C2       2
                                                                 
     s_v      3
                                                                 
     s_v'     4
                                                                 

     Band symmetry, C_2v (mm2)  point group:

     e(  1 -  1) =    -22.13760  eV     1   --> A_1  D_1  S_1  
     e(  2 -  2) =    -10.15731  eV     1   --> B_2  D_4  S_4  
     e(  3 -  3) =     -5.16227  eV     1   --> B_1  D_3  S_3  
     e(  4 -  4) =     -5.15627  eV     1   --> A_1  D_1  S_1  
     e(  5 -  5) =      0.88695  eV     1   --> A_1  D_1  S_1  
     e(  6 -  6) =      1.56108  eV     1   --> B_2  D_4  S_4  
     e(  7 -  7) =      1.68901  eV     1   --> A_1  D_1  S_1  
     e(  8 -  8) =      2.69902  eV     1   --> B_2  D_4  S_4  

 **************************************************************************

 **************************************************************************

                    xk=(   0.01333,   0.02309,   0.00000  )

     Band symmetry, C_2v (mm2)  point group:

     e(  1 -  1) =    -22.12781  eV     1   --> A_1  D_1  S_1  
     e(  2 -  2) =    -10.14543  eV     1   --> B_2  D_4  S_4  
     e(  3 -  3) =     -5.20238  eV     1   --> B_1  D_3  S_3  
     e(  4 -  4) =     -5.17857  eV     1   --> A_1  D_1  S_1  
     e(  5 -  5) =      0.90033  eV     1   --> A_1  D_1  S_1  
     e(  6 -  6) =      1.57468  eV     1   --> B_2  D_4  S_4  
     e(  7 -  7) =      1.70268  eV     1   --> A_1  D_1  S_1  
     e(  8 -  8) =      2.71257  eV     1   --> B_2  D_4  S_4  

 **************************************************************************

 **************************************************************************

                    xk=(   0.02000,   0.03464,   0.00000  )

     Band symmetry, C_2v (mm2)  point group:

     e(  1 -  1) =    -22.11151  eV     1   --> A_1  D_1  S_1  
     e(  2 -  2) =    -10.12565  eV     1   --> B_2  D_4  S_4  
     e(  3 -  3) =     -5.26841  eV     1   --> B_1  D_3  S_3  
     e(  4 -  4) =     -5.21559  eV     1   --> A_1  D_1  S_1  
     e(  5 -  5) =      0.92263  eV     1   --> A_1  D_1  S_1  
     e(  6 -  6) =      1.59734  eV     1   --> B_2  D_4  S_4  
     e(  7 -  7) =      1.72546  eV     1   --> A_1  D_1  S_1  
     e(  8 -  8) =      2.73517  eV     1   --> B_2  D_4  S_4  

 **************************************************************************

 **************************************************************************

                    xk=(   0.02667,   0.04619,   0.00000  )

     Band symmetry, C_2v (mm2)  point group:

     e(  1 -  1) =    -22.08869  eV     1   --> A_1  D_1  S_1  
     e(  2 -  2) =    -10.09796  eV     1   --> B_2  D_4  S_4  
     e(  3 -  3) =     -5.35916  eV     1   --> B_1  D_3  S_3  
     e(  4 -  4) =     -5.26712  eV     1   --> A_1  D_1  S_1  
     e(  5 -  5) =      0.95385  eV     1   --> A_1  D_1  S_1  
     e(  6 -  6) =      1.62907  eV     1   --> B_2  D_4  S_4  
     e(  7 -  7) =      1.75735  eV     1   --> A_1  D_1  S_1  
     e(  8 -  8) =      2.76680  eV     1   --> B_2  D_4  S_4  

 **************************************************************************

 **************************************************************************

                    xk=(   0.03333,   0.05773,   0.00000  )

     Band symmetry, C_2v (mm2)  point group:

     e(  1 -  1) =    -22.05935  eV     1   --> A_1  D_1  S_1  
     e(  2 -  2) =    -10.06239  eV     1   --> B_2  D_4  S_4  
     e(  3 -  3) =     -5.47310  eV     1   --> B_1  D_3  S_3  
     e(  4 -  4) =     -5.33286  eV     1   --> A_1  D_1  S_1  
     e(  5 -  5) =      0.99400  eV     1   --> A_1  D_1  S_1  
     e(  6 -  6) =      1.66986  eV     1   --> B_2  D_4  S_4  
     e(  7 -  7) =      1.79836  eV     1   --> A_1  D_1  S_1  
     e(  8 -  8) =      2.80746  eV     1   --> B_2  D_4  S_4  

 **************************************************************************

 **************************************************************************

                    xk=(   0.04000,   0.06928,   0.00000  )

     Band symmetry, C_2v (mm2)  point group:

     e(  1 -  1) =    -22.02351  eV     1   --> A_1  D_1  S_1  
     e(  2 -  2) =    -10.01894  eV     1   --> B_2  D_4  S_4  
     e(  3 -  3) =     -5.60844  eV     1   --> B_1  D_3  S_3  
     e(  4 -  4) =     -5.41243  eV     1   --> A_1  D_1  S_1  
     e(  5 -  5) =      1.04308  eV     1   --> A_1  D_1  S_1  
     e(  6 -  6) =      1.71970  eV     1   --> B_2  D_4  S_4  
     e(  7 -  7) =      1.84849  eV     1   --> A_1  D_1  S_1  
     e(  8 -  8) =      2.85715  eV     1   --> B_2  D_4  S_4  

 **************************************************************************

 **************************************************************************

                    xk=(   0.04667,   0.08083,   0.00000  )

     Band symmetry, C_2v (mm2)  point group:

     e(  1 -  1) =    -21.98117  eV     1   --> A_1  D_1  S_1  
     e(  2 -  2) =     -9.96764  eV     1   --> B_2  D_4  S_4  
     e(  3 -  3) =     -5.76323  eV     1   --> B_1  D_3  S_3  
     e(  4 -  4) =     -5.50539  eV     1   --> A_1  D_1  S_1  
     e(  5 -  5) =      1.10108  eV     1   --> A_1  D_1  S_1  
     e(  6 -  6) =      1.77861  eV     1   --> B_2  D_4  S_4  
     e(  7 -  7) =      1.90773  eV     1   --> A_1  D_1  S_1  
     e(  8 -  8) =      2.91587  eV     1   --> B_2  D_4  S_4  

 **************************************************************************

 **************************************************************************

                    xk=(   0.05333,   0.09238,   0.00000  )

     Band symmetry, C_2v (mm2)  point group:

     e(  1 -  1) =    -21.93233  eV     1   --> A_1  D_1  S_1  
     e(  2 -  2) =     -9.90852  eV     1   --> B_2  D_4  S_4  
     e(  3 -  3) =     -5.93541  eV     1   --> B_1  D_3  S_3  
     e(  4 -  4) =     -5.61122  eV     1   --> A_1  D_1  S_1  
     e(  5 -  5) =      1.16802  eV     1   --> A_1  D_1  S_1  
     e(  6 -  6) =      1.84656  eV     1   --> B_2  D_4  S_4  
     e(  7 -  7) =      1.97608  eV     1   --> A_1  D_1  S_1  
     e(  8 -  8) =      2.98362  eV     1   --> B_2  D_4  S_4  

 **************************************************************************

 **************************************************************************

                    xk=(   0.06000,   0.10392,   0.00000  )

     Band symmetry, C_2v (mm2)  point group:

     e(  1 -  1) =    -21.87701  eV     1   --> A_1  D_1  S_1  
     e(  2 -  2) =     -9.84159  eV     1   --> B_2  D_4  S_4  
     e(  3 -  3) =     -6.12298  eV     1   --> B_1  D_3  S_3  
     e(  4 -  4) =     -5.72935  eV     1   --> A_1  D_1  S_1  
     e(  5 -  5) =      1.24390  eV     1   --> A_1  D_1  S_1  
     e(  6 -  6) =      1.92357  eV     1   --> B_2  D_4  S_4  
     e(  7 -  7) =      2.05355  eV     1   --> A_1  D_1  S_1  
     e(  8 -  8) =      3.06037  eV     1   --> B_2  D_4  S_4  

 **************************************************************************

 **************************************************************************

                    xk=(   0.06667,   0.11547,   0.00000  )

     Band symmetry, C_2v (mm2)  point group:

     e(  1 -  1) =    -21.81522  eV     1   --> A_1  D_1  S_1  
     e(  2 -  2) =     -9.76690  eV     1   --> B_2  D_4  S_4  
     e(  3 -  3) =     -6.32394  eV     1   --> B_1  D_3  S_3  
     e(  4 -  4) =     -5.85916  eV     1   --> A_1  D_1  S_1  
     e(  5 -  5) =      1.32871  eV     1   --> A_1  D_1  S_1  
     e(  6 -  6) =      2.00961  eV     1   --> B_2  D_4  S_4  
     e(  7 -  7) =      2.14015  eV     1   --> A_1  D_1  S_1  
     e(  8 -  8) =      3.14614  eV     1   --> B_2  D_4  S_4  

 **************************************************************************

 **************************************************************************

                    xk=(   0.07333,   0.12702,   0.00000  )

     Band symmetry, C_2v (mm2)  point group:

     e(  1 -  1) =    -21.74698  eV     1   --> A_1  D_1  S_1  
     e(  2 -  2) =     -9.68448  eV     1   --> B_2  D_4  S_4  
     e(  3 -  3) =     -6.53644  eV     1   --> B_1  D_3  S_3  
     e(  4 -  4) =     -6.00000  eV     1   --> A_1  D_1  S_1  
     e(  5 -  5) =      1.42245  eV     1   --> A_1  D_1  S_1  
     e(  6 -  6) =      2.10469  eV     1   --> B_2  D_4  S_4  
     e(  7 -  7) =      2.23586  eV     1   --> A_1  D_1  S_1  
     e(  8 -  8) =      3.24091  eV     1   --> B_2  D_4  S_4  

 **************************************************************************

 **************************************************************************

                    xk=(   0.08000,   0.13856,   0.00000  )

     Band symmetry, C_2v (mm2)  point group:

     e(  1 -  1) =    -21.67229  eV     1   --> A_1  D_1  S_1  
     e(  2 -  2) =     -9.59437  eV     1   --> B_2  D_4  S_4  
     e(  3 -  3) =     -6.75871  eV     1   --> B_1  D_3  S_3  
     e(  4 -  4) =     -6.15115  eV     1   --> A_1  D_1  S_1  
     e(  5 -  5) =      1.52513  eV     1   --> A_1  D_1  S_1  
     e(  6 -  6) =      2.20881  eV     1   --> B_2  D_4  S_4  
     e(  7 -  7) =      2.34069  eV     1   --> A_1  D_1  S_1  
     e(  8 -  8) =      3.34468  eV     1   --> B_2  D_4  S_4  

 **************************************************************************

 **************************************************************************

                    xk=(   0.08667,   0.15011,   0.00000  )

     Band symmetry, C_2v (mm2)  point group:

     e(  1 -  1) =    -21.59117  eV     1   --> A_1  D_1  S_1  
     e(  2 -  2) =     -9.49662  eV     1   --> B_2  D_4  S_4  
     e(  3 -  3) =     -6.98916  eV     1   --> B_1  D_3  S_3  
     e(  4 -  4) =     -6.31191  eV     1   --> A_1  D_1  S_1  
     e(  5 -  5) =      1.63673  eV     1   --> A_1  D_1  S_1  
     e(  6 -  6) =      2.32194  eV     1   --> B_2  D_4  S_4  
     e(  7 -  7) =      2.45464  eV     1   --> A_1  D_1  S_1  
     e(  8 -  8) =      3.45742  eV     1   --> B_2  D_4  S_4  

 **************************************************************************

 **************************************************************************

                    xk=(   0.09333,   0.16166,   0.00000  )

     Band symmetry, C_2v (mm2)  point group:

     e(  1 -  1) =    -21.50364  eV     1   --> A_1  D_1  S_1  
     e(  2 -  2) =     -9.39129  eV     1   --> B_2  D_4  S_4  
     e(  3 -  3) =     -7.22632  eV     1   --> B_1  D_3  S_3  
     e(  4 -  4) =     -6.48154  eV     1   --> A_1  D_1  S_1  
     e(  5 -  5) =      1.75727  eV     1   --> A_1  D_1  S_1  
     e(  6 -  6) =      2.44408  eV     1   --> B_2  D_4  S_4  
     e(  7 -  7) =      2.57771  eV     1   --> A_1  D_1  S_1  
     e(  8 -  8) =      3.57914  eV     1   --> B_2  D_4  S_4  

 **************************************************************************

 **************************************************************************

                    xk=(   0.10000,   0.17320,   0.00000  )

     Band symmetry, C_2v (mm2)  point group:

     e(  1 -  1) =    -21.40972  eV     1   --> A_1  D_1  S_1  
     e(  2 -  2) =     -9.27843  eV     1   --> B_2  D_4  S_4  
     e(  3 -  3) =     -7.46887  eV     1   --> B_1  D_3  S_3  
     e(  4 -  4) =     -6.65929  eV     1   --> A_1  D_1  S_1  
     e(  5 -  5) =      1.88673  eV     1   --> A_1  D_1  S_1  
     e(  6 -  6) =      2.57522  eV     1   --> B_2  D_4  S_4  
     e(  7 -  7) =      2.70990  eV     1   --> A_1  D_1  S_1  
     e(  8 -  8) =      3.70982  eV     1   --> B_2  D_4  S_4  

 **************************************************************************

 **************************************************************************

                    xk=(   0.10667,   0.18475,   0.00000  )

     Band symmetry, C_2v (mm2)  point group:

     e(  1 -  1) =    -21.30943  eV     1   --> A_1  D_1  S_1  
     e(  2 -  2) =     -9.15811  eV     1   --> B_2  D_4  S_4  
     e(  3 -  3) =     -7.71561  eV     1   --> B_1  D_3  S_3  
     e(  4 -  4) =     -6.84442  eV     1   --> A_1  D_1  S_1  
     e(  5 -  5) =      2.02510  eV     1   --> A_1  D_1  S_1  
     e(  6 -  6) =      2.71535  eV     1   --> B_2  D_4  S_4  
     e(  7 -  7) =      2.85122  eV     1   --> A_1  D_1  S_1  
     e(  8 -  8) =      3.84943  eV     1   --> B_2  D_4  S_4  

 **************************************************************************

 **************************************************************************

                    xk=(   0.11333,   0.19630,   0.00000  )

     Band symmetry, C_2v (mm2)  point group:

     e(  1 -  1) =    -21.20280  eV     1   --> A_1  D_1  S_1  
     e(  2 -  2) =     -9.03040  eV     1   --> B_2  D_4  S_4  
     e(  3 -  3) =     -7.96550  eV     1   --> B_1  D_3  S_3  
     e(  4 -  4) =     -7.03619  eV     1   --> A_1  D_1  S_1  
     e(  5 -  5) =      2.17239  eV     1   --> A_1  D_1  S_1  
     e(  6 -  6) =      2.86445  eV     1   --> B_2  D_4  S_4  
     e(  7 -  7) =      3.00165  eV     1   --> A_1  D_1  S_1  
     e(  8 -  8) =      3.99797  eV     1   --> B_2  D_4  S_4  

 **************************************************************************

 **************************************************************************

                    xk=(   0.12000,   0.20784,   0.00000  )

     Band symmetry, C_2v (mm2)  point group:

     e(  1 -  1) =    -21.08985  eV     1   --> A_1  D_1  S_1  
     e(  2 -  2) =     -8.89539  eV     1   --> B_2  D_4  S_4  
     e(  3 -  3) =     -8.21758  eV     1   --> B_1  D_3  S_3  
     e(  4 -  4) =     -7.23386  eV     1   --> A_1  D_1  S_1  
     e(  5 -  5) =      2.32857  eV     1   --> A_1  D_1  S_1  
     e(  6 -  6) =      3.02251  eV     1   --> B_2  D_4  S_4  
     e(  7 -  7) =      3.16120  eV     1   --> A_1  D_1  S_1  
     e(  8 -  8) =      4.15541  eV     1   --> B_2  D_4  S_4  

 **************************************************************************

 **************************************************************************

                    xk=(   0.12667,   0.21939,   0.00000  )

     Band symmetry, C_2v (mm2)  point group:

     e(  1 -  1) =    -20.97062  eV     1   --> A_1  D_1  S_1  
     e(  2 -  2) =     -8.75315  eV     1   --> B_2  D_4  S_4  
     e(  3 -  3) =     -8.47101  eV     1   --> B_1  D_3  S_3  
     e(  4 -  4) =     -7.43674  eV     1   --> A_1  D_1  S_1  
     e(  5 -  5) =      2.49363  eV     1   --> A_1  D_1  S_1  
     e(  6 -  6) =      3.18949  eV     1   --> B_2  D_4  S_4  
     e(  7 -  7) =      3.32987  eV     1   --> A_1  D_1  S_1  
     e(  8 -  8) =      4.32172  eV     1   --> B_2  D_4  S_4  

 **************************************************************************

 **************************************************************************

                    xk=(   0.13333,   0.23094,   0.00000  )

     Band symmetry, C_2v (mm2)  point group:

     e(  1 -  1) =    -20.84512  eV     1   --> A_1  D_1  S_1  
     e(  2 -  2) =     -8.72505  eV     1   --> B_1  D_3  S_3  
     e(  3 -  3) =     -8.60380  eV     1   --> B_2  D_4  S_4  
     e(  4 -  4) =     -7.64412  eV     1   --> A_1  D_1  S_1  
     e(  5 -  5) =      2.66757  eV     1   --> A_1  D_1  S_1  
     e(  6 -  6) =      3.36538  eV     1   --> B_2  D_4  S_4  
     e(  7 -  7) =      3.50766  eV     1   --> A_1  D_1  S_1  
     e(  8 -  8) =      4.49687  eV     1   --> B_2  D_4  S_4  

 **************************************************************************

 **************************************************************************

                    xk=(   0.14000,   0.24248,   0.00000  )

     Band symmetry, C_2v (mm2)  point group:

     e(  1 -  1) =    -20.71341  eV     1   --> A_1  D_1  S_1  
     e(  2 -  2) =     -8.97903  eV     1   --> B_1  D_3  S_3  
     e(  3 -  3) =     -8.44743  eV     1   --> B_2  D_4  S_4  
     e(  4 -  4) =     -7.85533  eV     1   --> A_1  D_1  S_1  
     e(  5 -  5) =      2.85037  eV     1   --> A_1  D_1  S_1  
     e(  6 -  6) =      3.55014  eV     1   --> B_2  D_4  S_4  
     e(  7 -  7) =      3.69456  eV     1   --> A_1  D_1  S_1  
     e(  8 -  8) =      4.68083  eV     1   --> B_2  D_4  S_4  

 **************************************************************************

 **************************************************************************

                    xk=(   0.14667,   0.25403,   0.00000  )

     Band symmetry, C_2v (mm2)  point group:

     e(  1 -  1) =    -20.57552  eV     1   --> A_1  D_1  S_1  
     e(  2 -  2) =     -9.23237  eV     1   --> B_1  D_3  S_3  
     e(  3 -  3) =     -8.28417  eV     1   --> B_2  D_4  S_4  
     e(  4 -  4) =     -8.06972  eV     1   --> A_1  D_1  S_1  
     e(  5 -  5) =      3.04200  eV     1   --> A_1  D_1  S_1  
     e(  6 -  6) =      3.74375  eV     1   --> B_2  D_4  S_4  
     e(  7 -  7) =      3.89058  eV     1   --> A_1  D_1  S_1  
     e(  8 -  8) =      4.87355  eV     1   --> B_2  D_4  S_4  

 **************************************************************************

 **************************************************************************

                    xk=(   0.15333,   0.26558,   0.00000  )

     Band symmetry, C_2v (mm2)  point group:

     e(  1 -  1) =    -20.43148  eV     1   --> A_1  D_1  S_1  
     e(  2 -  2) =     -9.48454  eV     1   --> B_1  D_3  S_3  
     e(  3 -  3) =     -8.28668  eV     1   --> A_1  D_1  S_1  
     e(  4 -  4) =     -8.11414  eV     1   --> B_2  D_4  S_4  
     e(  5 -  5) =      3.24246  eV     1   --> A_1  D_1  S_1  
     e(  6 -  6) =      3.94615  eV     1   --> B_2  D_4  S_4  
     e(  7 -  7) =      4.09571  eV     1   --> A_1  D_1  S_1  
     e(  8 -  8) =      5.07497  eV     1   --> B_2  D_4  S_4  

 **************************************************************************

 **************************************************************************

                    xk=(   0.16000,   0.27713,   0.00000  )

     Band symmetry, C_2v (mm2)  point group:

     e(  1 -  1) =    -20.28136  eV     1   --> A_1  D_1  S_1  
     e(  2 -  2) =     -9.73508  eV     1   --> B_1  D_3  S_3  
     e(  3 -  3) =     -8.50561  eV     1   --> A_1  D_1  S_1  
     e(  4 -  4) =     -7.93750  eV     1   --> B_2  D_4  S_4  
     e(  5 -  5) =      3.45171  eV     1   --> A_1  D_1  S_1  
     e(  6 -  6) =      4.15728  eV     1   --> B_2  D_4  S_4  
     e(  7 -  7) =      4.30995  eV     1   --> A_1  D_1  S_1  
     e(  8 -  8) =      4.93780  eV     1   --> A_2  D_2  S_2  

 **************************************************************************

 **************************************************************************

                    xk=(   0.16666,   0.28867,   0.00000  )

     Band symmetry, C_2v (mm2)  point group:

     e(  1 -  1) =    -20.12519  eV     1   --> A_1  D_1  S_1  
     e(  2 -  2) =     -9.98358  eV     1   --> B_1  D_3  S_3  
     e(  3 -  3) =     -8.72594  eV     1   --> A_1  D_1  S_1  
     e(  4 -  4) =     -7.75440  eV     1   --> B_2  D_4  S_4  
     e(  5 -  5) =      3.66973  eV     1   --> A_1  D_1  S_1  
     e(  6 -  6) =      4.37710  eV     1   --> B_2  D_4  S_4  
     e(  7 -  7) =      4.53330  eV     1   --> A_1  D_1  S_1  
     e(  8 -  8) =      4.62061  eV     1   --> A_2  D_2  S_2  

 **************************************************************************

 **************************************************************************

                    xk=(   0.17333,   0.30022,   0.00000  )

     Band symmetry, C_2v (mm2)  point group:

     e(  1 -  1) =    -19.96304  eV     1   --> A_1  D_1  S_1  
     e(  2 -  2) =    -10.22967  eV     1   --> B_1  D_3  S_3  
     e(  3 -  3) =     -8.94713  eV     1   --> A_1  D_1  S_1  
     e(  4 -  4) =     -7.56501  eV     1   --> B_2  D_4  S_4  
     e(  5 -  5) =      3.89649  eV     1   --> A_1  D_1  S_1  
     e(  6 -  6) =      4.30370  eV     1   --> A_2  D_2  S_2  
     e(  7 -  7) =      4.60550  eV     1   --> B_2  D_4  S_4  
     e(  8 -  8) =      4.76576  eV     1   --> A_1  D_1  S_1  

 **************************************************************************

 **************************************************************************

                    xk=(   0.18000,   0.31177,   0.00000  )

     Band symmetry, C_2v (mm2)  point group:

     e(  1 -  1) =    -19.79497  eV     1   --> A_1  D_1  S_1  
     e(  2 -  2) =    -10.47303  eV     1   --> B_1  D_3  S_3  
     e(  3 -  3) =     -9.16866  eV     1   --> A_1  D_1  S_1  
     e(  4 -  4) =     -7.36952  eV     1   --> B_2  D_4  S_4  
     e(  5 -  5) =      3.98770  eV     1   --> A_2  D_2  S_2  
     e(  6 -  6) =      4.13195  eV     1   --> A_1  D_1  S_1  
     e(  7 -  7) =      4.84239  eV     1   --> B_2  D_4  S_4  
     e(  8 -  8) =      5.00732  eV     1   --> A_1  D_1  S_1  

 **************************************************************************

 **************************************************************************

                    xk=(   0.18666,   0.32331,   0.00000  )

     Band symmetry, C_2v (mm2)  point group:

     e(  1 -  1) =    -19.62105  eV     1   --> A_1  D_1  S_1  
     e(  2 -  2) =    -10.71336  eV     1   --> B_1  D_3  S_3  
     e(  3 -  3) =     -9.39005  eV     1   --> A_1  D_1  S_1  
     e(  4 -  4) =     -7.16816  eV     1   --> B_2  D_4  S_4  
     e(  5 -  5) =      3.67319  eV     1   --> A_2  D_2  S_2  
     e(  6 -  6) =      4.37607  eV     1   --> A_1  D_1  S_1  
     e(  7 -  7) =      5.08763  eV     1   --> B_2  D_4  S_4  
     e(  8 -  8) =      5.25798  eV     1   --> A_1  D_1  S_1  

 **************************************************************************

 **************************************************************************

                    xk=(   0.19333,   0.33486,   0.00000  )

     Band symmetry, C_2v (mm2)  point group:

     e(  1 -  1) =    -19.44136  eV     1   --> A_1  D_1  S_1  
     e(  2 -  2) =    -10.95041  eV     1   --> B_1  D_3  S_3  
     e(  3 -  3) =     -9.61083  eV     1   --> A_1  D_1  S_1  
     e(  4 -  4) =     -6.96115  eV     1   --> B_2  D_4  S_4  
     e(  5 -  5) =      3.36073  eV     1   --> A_2  D_2  S_2  
     e(  6 -  6) =      4.62881  eV     1   --> A_1  D_1  S_1  
     e(  7 -  7) =      5.34105  eV     1   --> B_2  D_4  S_4  
     e(  8 -  8) =      5.51773  eV     1   --> A_1  D_1  S_1  

 **************************************************************************

 **************************************************************************

                    xk=(   0.20000,   0.34641,   0.00000  )

     Band symmetry, C_2v (mm2)  point group:

     e(  1 -  1) =    -19.25599  eV     1   --> A_1  D_1  S_1  
     e(  2 -  2) =    -11.18394  eV     1   --> B_1  D_3  S_3  
     e(  3 -  3) =     -9.83055  eV     1   --> A_1  D_1  S_1  
     e(  4 -  4) =     -6.74876  eV     1   --> B_2  D_4  S_4  
     e(  5 -  5) =      3.05080  eV     1   --> A_2  D_2  S_2  
     e(  6 -  6) =      4.89010  eV     1   --> A_1  D_1  S_1  
     e(  7 -  7) =      5.60241  eV     1   --> B_2  D_4  S_4  
     e(  8 -  8) =      5.78657  eV     1   --> A_1  D_1  S_1  

 **************************************************************************

 **************************************************************************

                    xk=(   0.20666,   0.35795,   0.00000  )

     Band symmetry, C_2v (mm2)  point group:

     e(  1 -  1) =    -19.06503  eV     1   --> A_1  D_1  S_1  
     e(  2 -  2) =    -11.41376  eV     1   --> B_1  D_3  S_3  
     e(  3 -  3) =    -10.04878  eV     1   --> A_1  D_1  S_1  
     e(  4 -  4) =     -6.53126  eV     1   --> B_2  D_4  S_4  
     e(  5 -  5) =      2.74385  eV     1   --> A_2  D_2  S_2  
     e(  6 -  6) =      5.15988  eV     1   --> A_1  D_1  S_1  
     e(  7 -  7) =      5.87139  eV     1   --> B_2  D_4  S_4  
     e(  8 -  8) =      6.06449  eV     1   --> A_1  D_1  S_1  

 **************************************************************************

 **************************************************************************

                    xk=(   0.21333,   0.36950,   0.00000  )

     Band symmetry, C_2v (mm2)  point group:

     e(  1 -  1) =    -18.86861  eV     1   --> A_1  D_1  S_1  
     e(  2 -  2) =    -11.63967  eV     1   --> B_1  D_3  S_3  
     e(  3 -  3) =    -10.26512  eV     1   --> A_1  D_1  S_1  
     e(  4 -  4) =     -6.30898  eV     1   --> B_2  D_4  S_4  
     e(  5 -  5) =      2.44030  eV     1   --> A_2  D_2  S_2  
     e(  6 -  6) =      5.43806  eV     1   --> A_1  D_1  S_1  
     e(  7 -  7) =      6.14757  eV     1   --> B_2  D_4  S_4  
     e(  8 -  8) =      6.35149  eV     1   --> A_1  D_1  S_1  

 **************************************************************************

 **************************************************************************

                    xk=(   0.22000,   0.38105,   0.00000  )

     Band symmetry, C_2v (mm2)  point group:

     e(  1 -  1) =    -18.66684  eV     1   --> A_1  D_1  S_1  
     e(  2 -  2) =    -11.86150  eV     1   --> B_1  D_3  S_3  
     e(  3 -  3) =    -10.47916  eV     1   --> A_1  D_1  S_1  
     e(  4 -  4) =     -6.08227  eV     1   --> B_2  D_4  S_4  
     e(  5 -  5) =      2.14055  eV     1   --> A_2  D_2  S_2  
     e(  6 -  6) =      5.72457  eV     1   --> A_1  D_1  S_1  
     e(  7 -  7) =      6.43030  eV     1   --> B_2  D_4  S_4  
     e(  8 -  8) =      6.64756  eV     1   --> A_1  D_1  S_1  

 **************************************************************************

 **************************************************************************

                    xk=(   0.22666,   0.39259,   0.00000  )

     Band symmetry, C_2v (mm2)  point group:

     e(  1 -  1) =    -18.45987  eV     1   --> A_1  D_1  S_1  
     e(  2 -  2) =    -12.07912  eV     1   --> B_1  D_3  S_3  
     e(  3 -  3) =    -10.69053  eV     1   --> A_1  D_1  S_1  
     e(  4 -  4) =     -5.85150  eV     1   --> B_2  D_4  S_4  
     e(  5 -  5) =      1.84493  eV     1   --> A_2  D_2  S_2  
     e(  6 -  6) =      6.01926  eV     1   --> A_1  D_1  S_1  
     e(  7 -  7) =      6.71867  eV     1   --> B_2  D_4  S_4  
     e(  8 -  8) =      6.95268  eV     1   --> A_1  D_1  S_1  

 **************************************************************************

 **************************************************************************

                    xk=(   0.23333,   0.40414,   0.00000  )

     Band symmetry, C_2v (mm2)  point group:

     e(  1 -  1) =    -18.24789  eV     1   --> A_1  D_1  S_1  
     e(  2 -  2) =    -12.29239  eV     1   --> B_1  D_3  S_3  
     e(  3 -  3) =    -10.89882  eV     1   --> A_1  D_1  S_1  
     e(  4 -  4) =     -5.61712  eV     1   --> B_2  D_4  S_4  
     e(  5 -  5) =      1.55377  eV     1   --> A_2  D_2  S_2  
     e(  6 -  6) =      6.32201  eV     1   --> A_1  D_1  S_1  
     e(  7 -  7) =      7.01129  eV     1   --> B_2  D_4  S_4  
     e(  8 -  8) =      7.26685  eV     1   --> A_1  D_1  S_1  

 **************************************************************************

 **************************************************************************

                    xk=(   0.24000,   0.41569,   0.00000  )

     Band symmetry, C_2v (mm2)  point group:

     e(  1 -  1) =    -18.03107  eV     1   --> A_1  D_1  S_1  
     e(  2 -  2) =    -12.50119  eV     1   --> B_1  D_3  S_3  
     e(  3 -  3) =    -11.10366  eV     1   --> A_1  D_1  S_1  
     e(  4 -  4) =     -5.37959  eV     1   --> B_2  D_4  S_4  
     e(  5 -  5) =      1.26738  eV     1   --> A_2  D_2  S_2  
     e(  6 -  6) =      6.63264  eV     1   --> A_1  D_1  S_1  
     e(  7 -  7) =      7.30593  eV     1   --> B_2  D_4  S_4  
     e(  8 -  8) =      7.59004  eV     1   --> A_1  D_1  S_1  

 **************************************************************************

 **************************************************************************

                    xk=(   0.24666,   0.42723,   0.00000  )

     Band symmetry, C_2v (mm2)  point group:

     e(  1 -  1) =    -17.80967  eV     1   --> A_1  D_1  S_1  
     e(  2 -  2) =    -12.70542  eV     1   --> B_1  D_3  S_3  
     e(  3 -  3) =    -11.30464  eV     1   --> A_1  D_1  S_1  
     e(  4 -  4) =     -5.13942  eV     1   --> B_2  D_4  S_4  
     e(  5 -  5) =      0.98601  eV     1   --> A_2  D_2  S_2  
     e(  6 -  6) =      6.95091  eV     1   --> A_1  D_1  S_1  
     e(  7 -  7) =      7.59899  eV     1   --> B_2  D_4  S_4  
     e(  8 -  8) =      7.92223  eV     1   --> A_1  D_1  S_1  

 **************************************************************************

 **************************************************************************

                    xk=(   0.25333,   0.43878,   0.00000  )

     Band symmetry, C_2v (mm2)  point group:

     e(  1 -  1) =    -17.58397  eV     1   --> A_1  D_1  S_1  
     e(  2 -  2) =    -12.90496  eV     1   --> B_1  D_3  S_3  
     e(  3 -  3) =    -11.50136  eV     1   --> A_1  D_1  S_1  
     e(  4 -  4) =     -4.89720  eV     1   --> B_2  D_4  S_4  
     e(  5 -  5) =      0.70994  eV     1   --> A_2  D_2  S_2  
     e(  6 -  6) =      7.27656  eV     1   --> A_1  D_1  S_1  
     e(  7 -  7) =      7.88439  eV     1   --> B_2  D_4  S_4  
     e(  8 -  8) =      8.26341  eV     1   --> A_1  D_1  S_1  

 **************************************************************************

 **************************************************************************

                    xk=(   0.26000,   0.45033,   0.00000  )

     Band symmetry, C_2v (mm2)  point group:

     e(  1 -  1) =    -17.35431  eV     1   --> A_1  D_1  S_1  
     e(  2 -  2) =    -13.09976  eV     1   --> B_1  D_3  S_3  
     e(  3 -  3) =    -11.69334  eV     1   --> A_1  D_1  S_1  
     e(  4 -  4) =     -4.65356  eV     1   --> B_2  D_4  S_4  
     e(  5 -  5) =      0.43938  eV     1   --> A_2  D_2  S_2  
     e(  6 -  6) =      7.60920  eV     1   --> A_1  D_1  S_1  
     e(  7 -  7) =      8.15192  eV     1   --> B_2  D_4  S_4  
     e(  8 -  8) =      8.61352  eV     1   --> A_1  D_1  S_1  

 **************************************************************************

 **************************************************************************

                    xk=(   0.26666,   0.46188,   0.00000  )

     Band symmetry, C_2v (mm2)  point group:

     e(  1 -  1) =    -17.12112  eV     1   --> A_1  D_1  S_1  
     e(  2 -  2) =    -13.28971  eV     1   --> B_1  D_3  S_3  
     e(  3 -  3) =    -11.88010  eV     1   --> A_1  D_1  S_1  
     e(  4 -  4) =     -4.40918  eV     1   --> B_2  D_4  S_4  
     e(  5 -  5) =      0.17454  eV     1   --> A_2  D_2  S_2  
     e(  6 -  6) =      7.94834  eV     1   --> A_1  D_1  S_1  
     e(  7 -  7) =      8.38558  eV     1   --> B_2  D_4  S_4  
     e(  8 -  8) =      8.97254  eV     1   --> A_1  D_1  S_1  

 **************************************************************************

 **************************************************************************

                    xk=(   0.27333,   0.47342,   0.00000  )

     Band symmetry, C_2v (mm2)  point group:

     e(  1 -  1) =    -16.88494  eV     1   --> A_1  D_1  S_1  
     e(  2 -  2) =    -13.47476  eV     1   --> B_1  D_3  S_3  
     e(  3 -  3) =    -12.06102  eV     1   --> A_1  D_1  S_1  
     e(  4 -  4) =     -4.16482  eV     1   --> B_2  D_4  S_4  
     e(  5 -  5) =     -0.08436  eV     1   --> A_2  D_2  S_2  
     e(  6 -  6) =      8.29335  eV     1   --> A_1  D_1  S_1  
     e(  7 -  7) =      8.56556  eV     1   --> B_2  D_4  S_4  
     e(  8 -  8) =      9.34038  eV     1   --> A_1  D_1  S_1  

 **************************************************************************

 **************************************************************************

                    xk=(   0.28000,   0.48497,   0.00000  )

     Band symmetry, C_2v (mm2)  point group:

     e(  1 -  1) =    -16.64648  eV     1   --> A_1  D_1  S_1  
     e(  2 -  2) =    -13.65484  eV     1   --> B_1  D_3  S_3  
     e(  3 -  3) =    -12.23537  eV     1   --> A_1  D_1  S_1  
     e(  4 -  4) =     -3.92131  eV     1   --> B_2  D_4  S_4  
     e(  5 -  5) =     -0.33716  eV     1   --> A_2  D_2  S_2  
     e(  6 -  6) =      8.64331  eV     1   --> A_1  D_1  S_1  
     e(  7 -  7) =      8.67848  eV     1   --> B_2  D_4  S_4  
     e(  8 -  8) =      9.71696  eV     1   --> A_1  D_1  S_1  

 **************************************************************************

 **************************************************************************

                    xk=(   0.28666,   0.49652,   0.00000  )

     Band symmetry, C_2v (mm2)  point group:

     e(  1 -  1) =    -16.40668  eV     1   --> A_1  D_1  S_1  
     e(  2 -  2) =    -13.82990  eV     1   --> B_1  D_3  S_3  
     e(  3 -  3) =    -12.40222  eV     1   --> A_1  D_1  S_1  
     e(  4 -  4) =     -3.67954  eV     1   --> B_2  D_4  S_4  
     e(  5 -  5) =     -0.58369  eV     1   --> A_2  D_2  S_2  
     e(  6 -  6) =      8.72835  eV     1   --> B_2  D_4  S_4  
     e(  7 -  7) =      8.99697  eV     1   --> A_1  D_1  S_1  
     e(  8 -  8) =     10.10213  eV     1   --> A_1  D_1  S_1  

 **************************************************************************

 **************************************************************************

                    xk=(   0.29333,   0.50806,   0.00000  )

     Band symmetry, C_2v (mm2)  point group:

     e(  1 -  1) =    -16.16681  eV     1   --> A_1  D_1  S_1  
     e(  2 -  2) =    -13.99988  eV     1   --> B_1  D_3  S_3  
     e(  3 -  3) =    -12.56032  eV     1   --> A_1  D_1  S_1  
     e(  4 -  4) =     -3.44046  eV     1   --> B_2  D_4  S_4  
     e(  5 -  5) =     -0.82378  eV     1   --> A_2  D_2  S_2  
     e(  6 -  6) =      8.73262  eV     1   --> B_2  D_4  S_4  
     e(  7 -  7) =      9.35247  eV     1   --> A_1  D_1  S_1  
     e(  8 -  8) =     10.49561  eV     1   --> A_1  D_1  S_1  

 **************************************************************************

 **************************************************************************

                    xk=(   0.30000,   0.51961,   0.00000  )

     Band symmetry, C_2v (mm2)  point group:

     e(  1 -  1) =    -15.92867  eV     1   --> A_1  D_1  S_1  
     e(  2 -  2) =    -14.16475  eV     1   --> B_1  D_3  S_3  
     e(  3 -  3) =    -12.70794  eV     1   --> A_1  D_1  S_1  
     e(  4 -  4) =     -3.20509  eV     1   --> B_2  D_4  S_4  
     e(  5 -  5) =     -1.05731  eV     1   --> A_2  D_2  S_2  
     e(  6 -  6) =      8.71032  eV     1   --> B_2  D_4  S_4  
     e(  7 -  7) =      9.70708  eV     1   --> A_1  D_1  S_1  
     e(  8 -  8) =     10.89683  eV     1   --> A_1  D_1  S_1  

 **************************************************************************

 **************************************************************************

                    xk=(   0.30666,   0.53116,   0.00000  )

     Band symmetry, C_2v (mm2)  point group:

     e(  1 -  1) =    -15.69484  eV     1   --> A_1  D_1  S_1  
     e(  2 -  2) =    -14.32445  eV     1   --> B_1  D_3  S_3  
     e(  3 -  3) =    -12.84258  eV     1   --> A_1  D_1  S_1  
     e(  4 -  4) =     -2.97451  eV     1   --> B_2  D_4  S_4  
     e(  5 -  5) =     -1.28414  eV     1   --> A_2  D_2  S_2  
     e(  6 -  6) =      8.67621  eV     1   --> B_2  D_4  S_4  
     e(  7 -  7) =     10.05647  eV     1   --> A_1  D_1  S_1  
     e(  8 -  8) =     11.30350  eV     1   --> A_1  D_1  S_1  

 **************************************************************************

 **************************************************************************

                    xk=(   0.31333,   0.54270,   0.00000  )

     Band symmetry, C_2v (mm2)  point group:

     e(  1 -  1) =    -15.46917  eV     1   --> A_1  D_1  S_1  
     e(  2 -  2) =    -14.47896  eV     1   --> B_1  D_3  S_3  
     e(  3 -  3) =    -12.96052  eV     1   --> A_1  D_1  S_1  
     e(  4 -  4) =     -2.74982  eV     1   --> B_2  D_4  S_4  
     e(  5 -  5) =     -1.50415  eV     1   --> A_2  D_2  S_2  
     e(  6 -  6) =      8.64046  eV     1   --> B_2  D_4  S_4  
     e(  7 -  7) =     10.39362  eV     1   --> A_1  D_1  S_1  
     e(  8 -  8) =     11.40207  eV     1   --> B_1  D_3  S_3  

 **************************************************************************

 **************************************************************************

                    xk=(   0.32000,   0.55425,   0.00000  )

     Band symmetry, C_2v (mm2)  point group:

     e(  1 -  1) =    -15.25736  eV     1   --> A_1  D_1  S_1  
     e(  2 -  2) =    -14.62823  eV     1   --> B_1  D_3  S_3  
     e(  3 -  3) =    -13.05623  eV     1   --> A_1  D_1  S_1  
     e(  4 -  4) =     -2.53215  eV     1   --> B_2  D_4  S_4  
     e(  5 -  5) =     -1.71722  eV     1   --> A_2  D_2  S_2  
     e(  6 -  6) =      8.60994  eV     1   --> B_2  D_4  S_4  
     e(  7 -  7) =     10.70622  eV     1   --> A_1  D_1  S_1  
     e(  8 -  8) =     11.32953  eV     1   --> B_1  D_3  S_3  

 **************************************************************************

 **************************************************************************

                    xk=(   0.32666,   0.56580,   0.00000  )

     Band symmetry, C_2v (mm2)  point group:

     e(  1 -  1) =    -15.06770  eV     1   --> A_1  D_1  S_1  
     e(  2 -  2) =    -14.77225  eV     1   --> B_1  D_3  S_3  
     e(  3 -  3) =    -13.12161  eV     1   --> A_1  D_1  S_1  
     e(  4 -  4) =     -2.32263  eV     1   --> B_2  D_4  S_4  
     e(  5 -  5) =     -1.92325  eV     1   --> A_2  D_2  S_2  
     e(  6 -  6) =      8.58936  eV     1   --> B_2  D_4  S_4  
     e(  7 -  7) =     10.97100  eV     1   --> A_1  D_1  S_1  
     e(  8 -  8) =     11.24241  eV     1   --> B_1  D_3  S_3  

 **************************************************************************

 **************************************************************************

                    xk=(   0.33333,   0.57734,   0.00000  )

     Band symmetry, C_2v (mm2)  point group:

     e(  1 -  1) =    -14.91111  eV     1   --> A_1  D_1  S_1  
     e(  2 -  2) =    -14.91098  eV     1   --> B_1  D_3  S_3  
     e(  3 -  3) =    -13.14599  eV     1   --> A_1  D_1  S_1  
     e(  4 -  4) =     -2.12235  eV     1   --> B_2  D_4  S_4  
     e(  5 -  5) =     -2.12215  eV     1   --> A_2  D_2  S_2  
     e(  6 -  6) =      8.58195  eV     1   --> B_2  D_4  S_4  
     e(  7 -  7) =     11.14276  eV     1   --> A_1  D_1  S_1  
     e(  8 -  8) =     11.14286  eV     1   --> B_1  D_3  S_3  

 **************************************************************************

 **************************************************************************

                    xk=(   0.33889,   0.56772,   0.00000  )

     zone border point and non-symmorphic group 
     symmetry decomposition not available

 **************************************************************************

 **************************************************************************

                    xk=(   0.34444,   0.55810,   0.00000  )

     zone border point and non-symmorphic group 
     symmetry decomposition not available

 **************************************************************************

 **************************************************************************

                    xk=(   0.35000,   0.54848,   0.00000  )

     zone border point and non-symmorphic group 
     symmetry decomposition not available

 **************************************************************************

 **************************************************************************

                    xk=(   0.35555,   0.53886,   0.00000  )

     zone border point and non-symmorphic group 
     symmetry decomposition not available

 **************************************************************************

 **************************************************************************

                    xk=(   0.36111,   0.52923,   0.00000  )

     zone border point and non-symmorphic group 
     symmetry decomposition not available

 **************************************************************************

 **************************************************************************

                    xk=(   0.36666,   0.51961,   0.00000  )

     zone border point and non-symmorphic group 
     symmetry decomposition not available

 **************************************************************************

 **************************************************************************

                    xk=(   0.37222,   0.50999,   0.00000  )

     zone border point and non-symmorphic group 
     symmetry decomposition not available

 **************************************************************************

 **************************************************************************

                    xk=(   0.37778,   0.50037,   0.00000  )

     zone border point and non-symmorphic group 
     symmetry decomposition not available

 **************************************************************************

 **************************************************************************

                    xk=(   0.38333,   0.49074,   0.00000  )

     zone border point and non-symmorphic group 
     symmetry decomposition not available

 **************************************************************************

 **************************************************************************

                    xk=(   0.38889,   0.48112,   0.00000  )

     zone border point and non-symmorphic group 
     symmetry decomposition not available

 **************************************************************************

 **************************************************************************

                    xk=(   0.39444,   0.47150,   0.00000  )

     zone border point and non-symmorphic group 
     symmetry decomposition not available

 **************************************************************************

 **************************************************************************

                    xk=(   0.40000,   0.46188,   0.00000  )

     zone border point and non-symmorphic group 
     symmetry decomposition not available

 **************************************************************************

 **************************************************************************

                    xk=(   0.40555,   0.45225,   0.00000  )

     zone border point and non-symmorphic group 
     symmetry decomposition not available

 **************************************************************************

 **************************************************************************

                    xk=(   0.41111,   0.44263,   0.00000  )

     zone border point and non-symmorphic group 
     symmetry decomposition not available

 **************************************************************************

 **************************************************************************

                    xk=(   0.41666,   0.43301,   0.00000  )

     zone border point and non-symmorphic group 
     symmetry decomposition not available

 **************************************************************************

 **************************************************************************

                    xk=(   0.42222,   0.42339,   0.00000  )

     zone border point and non-symmorphic group 
     symmetry decomposition not available

 **************************************************************************

 **************************************************************************

                    xk=(   0.42778,   0.41377,   0.00000  )

     zone border point and non-symmorphic group 
     symmetry decomposition not available

 **************************************************************************

 **************************************************************************

                    xk=(   0.43333,   0.40414,   0.00000  )

     zone border point and non-symmorphic group 
     symmetry decomposition not available

 **************************************************************************

 **************************************************************************

                    xk=(   0.43889,   0.39452,   0.00000  )

     zone border point and non-symmorphic group 
     symmetry decomposition not available

 **************************************************************************

 **************************************************************************

                    xk=(   0.44444,   0.38490,   0.00000  )

     zone border point and non-symmorphic group 
     symmetry decomposition not available

 **************************************************************************

 **************************************************************************

                    xk=(   0.45000,   0.37528,   0.00000  )

     zone border point and non-symmorphic group 
     symmetry decomposition not available

 **************************************************************************

 **************************************************************************

                    xk=(   0.45555,   0.36565,   0.00000  )

     zone border point and non-symmorphic group 
     symmetry decomposition not available

 **************************************************************************

 **************************************************************************

                    xk=(   0.46111,   0.35603,   0.00000  )

     zone border point and non-symmorphic group 
     symmetry decomposition not available

 **************************************************************************

 **************************************************************************

                    xk=(   0.46667,   0.34641,   0.00000  )

     zone border point and non-symmorphic group 
     symmetry decomposition not available

 **************************************************************************

 **************************************************************************

                    xk=(   0.47222,   0.33679,   0.00000  )

     zone border point and non-symmorphic group 
     symmetry decomposition not available

 **************************************************************************

 **************************************************************************

                    xk=(   0.47778,   0.32716,   0.00000  )

     zone border point and non-symmorphic group 
     symmetry decomposition not available

 **************************************************************************

 **************************************************************************

                    xk=(   0.48333,   0.31754,   0.00000  )

     zone border point and non-symmorphic group 
     symmetry decomposition not available

 **************************************************************************

 **************************************************************************

                    xk=(   0.48889,   0.30792,   0.00000  )

     zone border point and non-symmorphic group 
     symmetry decomposition not available

 **************************************************************************

 **************************************************************************

                    xk=(   0.49444,   0.29830,   0.00000  )

     zone border point and non-symmorphic group 
     symmetry decomposition not available

 **************************************************************************

 **************************************************************************

                    xk=(   0.50000,   0.28868,   0.00000  )

     zone border point and non-symmorphic group 
     symmetry decomposition not available

 **************************************************************************

 **************************************************************************

                    xk=(   0.49000,   0.28290,   0.00000  )

     point group C_2v (mm2) 
     there are  4 classes
     the character table:

       E     C2    s_v   s_v' 
A_1    1.00  1.00  1.00  1.00
A_2    1.00  1.00 -1.00 -1.00
B_1    1.00 -1.00  1.00 -1.00
B_2    1.00 -1.00 -1.00  1.00

     the symmetry operations in each class and the name of the first element:

     E        1
                                                                 
     C2       2
                                                                 
     s_v      3
                                                                 
     s_v'     4
                                                                 

     Band symmetry, C_2v (mm2)  point group:

     e(  1 -  1) =    -16.67567  eV     1   --> A_1  D_1  S_1  
     e(  2 -  2) =    -15.70900  eV     1   --> A_1  D_1  S_1  
     e(  3 -  3) =     -8.72347  eV     1   --> B_1  D_3  S_3  
     e(  4 -  4) =     -4.62214  eV     1   --> B_2  D_4  S_4  
     e(  5 -  5) =     -0.39594  eV     1   --> B_2  D_4  S_4  
     e(  6 -  6) =      5.86832  eV     1   --> A_1  D_1  S_1  
     e(  7 -  7) =      8.84123  eV     1   --> A_1  D_1  S_1  
     e(  8 -  8) =      9.49769  eV     1   --> A_1  D_1  S_1  

 **************************************************************************

 **************************************************************************

                    xk=(   0.48000,   0.27713,   0.00000  )

     Band symmetry, C_2v (mm2)  point group:

     e(  1 -  1) =    -16.81089  eV     1   --> A_1  D_1  S_1  
     e(  2 -  2) =    -15.56286  eV     1   --> A_1  D_1  S_1  
     e(  3 -  3) =     -8.71604  eV     1   --> B_1  D_3  S_3  
     e(  4 -  4) =     -4.67146  eV     1   --> B_2  D_4  S_4  
     e(  5 -  5) =     -0.33465  eV     1   --> B_2  D_4  S_4  
     e(  6 -  6) =      5.87139  eV     1   --> A_1  D_1  S_1  
     e(  7 -  7) =      8.53146  eV     1   --> A_1  D_1  S_1  
     e(  8 -  8) =      9.32733  eV     1   --> B_2  D_4  S_4  

 **************************************************************************

 **************************************************************************

                    xk=(   0.47000,   0.27135,   0.00000  )

     Band symmetry, C_2v (mm2)  point group:

     e(  1 -  1) =    -16.98326  eV     1   --> A_1  D_1  S_1  
     e(  2 -  2) =    -15.37231  eV     1   --> A_1  D_1  S_1  
     e(  3 -  3) =     -8.70366  eV     1   --> B_1  D_3  S_3  
     e(  4 -  4) =     -4.75054  eV     1   --> B_2  D_4  S_4  
     e(  5 -  5) =     -0.23565  eV     1   --> B_2  D_4  S_4  
     e(  6 -  6) =      5.87645  eV     1   --> A_1  D_1  S_1  
     e(  7 -  7) =      8.22478  eV     1   --> A_1  D_1  S_1  
     e(  8 -  8) =      9.01480  eV     1   --> B_2  D_4  S_4  

 **************************************************************************

 **************************************************************************

                    xk=(   0.46000,   0.26558,   0.00000  )

     Band symmetry, C_2v (mm2)  point group:

     e(  1 -  1) =    -17.17077  eV     1   --> A_1  D_1  S_1  
     e(  2 -  2) =    -15.15938  eV     1   --> A_1  D_1  S_1  
     e(  3 -  3) =     -8.68635  eV     1   --> B_1  D_3  S_3  
     e(  4 -  4) =     -4.85545  eV     1   --> B_2  D_4  S_4  
     e(  5 -  5) =     -0.10292  eV     1   --> B_2  D_4  S_4  
     e(  6 -  6) =      5.88342  eV     1   --> A_1  D_1  S_1  
     e(  7 -  7) =      7.92329  eV     1   --> A_1  D_1  S_1  
     e(  8 -  8) =      8.70714  eV     1   --> B_2  D_4  S_4  

 **************************************************************************

 **************************************************************************

                    xk=(   0.45000,   0.25981,   0.00000  )

     Band symmetry, C_2v (mm2)  point group:

     e(  1 -  1) =    -17.36401  eV     1   --> A_1  D_1  S_1  
     e(  2 -  2) =    -14.93353  eV     1   --> A_1  D_1  S_1  
     e(  3 -  3) =     -8.66413  eV     1   --> B_1  D_3  S_3  
     e(  4 -  4) =     -4.98177  eV     1   --> B_2  D_4  S_4  
     e(  5 -  5) =      0.05906  eV     1   --> B_2  D_4  S_4  
     e(  6 -  6) =      5.89212  eV     1   --> A_1  D_1  S_1  
     e(  7 -  7) =      7.62764  eV     1   --> A_1  D_1  S_1  
     e(  8 -  8) =      8.40496  eV     1   --> B_2  D_4  S_4  

 **************************************************************************

 **************************************************************************

                    xk=(   0.44000,   0.25403,   0.00000  )

     Band symmetry, C_2v (mm2)  point group:

     e(  1 -  1) =    -17.55866  eV     1   --> A_1  D_1  S_1  
     e(  2 -  2) =    -14.69909  eV     1   --> A_1  D_1  S_1  
     e(  3 -  3) =     -8.63702  eV     1   --> B_1  D_3  S_3  
     e(  4 -  4) =     -5.12520  eV     1   --> B_2  D_4  S_4  
     e(  5 -  5) =      0.24588  eV     1   --> B_2  D_4  S_4  
     e(  6 -  6) =      5.90228  eV     1   --> A_1  D_1  S_1  
     e(  7 -  7) =      7.33834  eV     1   --> A_1  D_1  S_1  
     e(  8 -  8) =      8.10857  eV     1   --> B_2  D_4  S_4  

 **************************************************************************

 **************************************************************************

                    xk=(   0.43000,   0.24826,   0.00000  )

     Band symmetry, C_2v (mm2)  point group:

     e(  1 -  1) =    -17.75256  eV     1   --> A_1  D_1  S_1  
     e(  2 -  2) =    -14.45831  eV     1   --> A_1  D_1  S_1  
     e(  3 -  3) =     -8.60506  eV     1   --> B_1  D_3  S_3  
     e(  4 -  4) =     -5.28183  eV     1   --> B_2  D_4  S_4  
     e(  5 -  5) =      0.45355  eV     1   --> B_2  D_4  S_4  
     e(  6 -  6) =      5.91337  eV     1   --> A_1  D_1  S_1  
     e(  7 -  7) =      7.05603  eV     1   --> A_1  D_1  S_1  
     e(  8 -  8) =      7.81818  eV     1   --> B_2  D_4  S_4  

 **************************************************************************

 **************************************************************************

                    xk=(   0.42000,   0.24249,   0.00000  )

     Band symmetry, C_2v (mm2)  point group:

     e(  1 -  1) =    -17.94451  eV     1   --> A_1  D_1  S_1  
     e(  2 -  2) =    -14.21244  eV     1   --> A_1  D_1  S_1  
     e(  3 -  3) =     -8.56828  eV     1   --> B_1  D_3  S_3  
     e(  4 -  4) =     -5.44834  eV     1   --> B_2  D_4  S_4  
     e(  5 -  5) =      0.67860  eV     1   --> B_2  D_4  S_4  
     e(  6 -  6) =      5.92420  eV     1   --> A_1  D_1  S_1  
     e(  7 -  7) =      6.78191  eV     1   --> A_1  D_1  S_1  
     e(  8 -  8) =      7.53393  eV     1   --> B_2  D_4  S_4  

 **************************************************************************

 **************************************************************************

                    xk=(   0.41000,   0.23671,   0.00000  )

     Band symmetry, C_2v (mm2)  point group:

     e(  1 -  1) =    -18.13377  eV     1   --> A_1  D_1  S_1  
     e(  2 -  2) =    -13.96229  eV     1   --> A_1  D_1  S_1  
     e(  3 -  3) =     -8.52673  eV     1   --> B_1  D_3  S_3  
     e(  4 -  4) =     -5.62194  eV     1   --> B_2  D_4  S_4  
     e(  5 -  5) =      0.91809  eV     1   --> B_2  D_4  S_4  
     e(  6 -  6) =      5.93156  eV     1   --> A_1  D_1  S_1  
     e(  7 -  7) =      6.51920  eV     1   --> A_1  D_1  S_1  
     e(  8 -  8) =      7.25594  eV     1   --> B_2  D_4  S_4  

 **************************************************************************

 **************************************************************************

                    xk=(   0.40000,   0.23094,   0.00000  )

     Band symmetry, C_2v (mm2)  point group:

     e(  1 -  1) =    -18.31987  eV     1   --> A_1  D_1  S_1  
     e(  2 -  2) =    -13.70842  eV     1   --> A_1  D_1  S_1  
     e(  3 -  3) =     -8.48046  eV     1   --> B_1  D_3  S_3  
     e(  4 -  4) =     -5.80038  eV     1   --> B_2  D_4  S_4  
     e(  5 -  5) =      1.16960  eV     1   --> B_2  D_4  S_4  
     e(  6 -  6) =      5.92323  eV     1   --> A_1  D_1  S_1  
     e(  7 -  7) =      6.28001  eV     1   --> A_1  D_1  S_1  
     e(  8 -  8) =      6.98431  eV     1   --> B_2  D_4  S_4  

 **************************************************************************

 **************************************************************************

                    xk=(   0.39000,   0.22517,   0.00000  )

     Band symmetry, C_2v (mm2)  point group:

     e(  1 -  1) =    -18.50251  eV     1   --> A_1  D_1  S_1  
     e(  2 -  2) =    -13.45124  eV     1   --> A_1  D_1  S_1  
     e(  3 -  3) =     -8.42952  eV     1   --> B_1  D_3  S_3  
     e(  4 -  4) =     -5.98183  eV     1   --> B_2  D_4  S_4  
     e(  5 -  5) =      1.43109  eV     1   --> B_2  D_4  S_4  
     e(  6 -  6) =      5.84583  eV     1   --> A_1  D_1  S_1  
     e(  7 -  7) =      6.11751  eV     1   --> A_1  D_1  S_1  
     e(  8 -  8) =      6.71911  eV     1   --> B_2  D_4  S_4  

 **************************************************************************

 **************************************************************************

                    xk=(   0.38000,   0.21939,   0.00000  )

     Band symmetry, C_2v (mm2)  point group:

     e(  1 -  1) =    -18.68145  eV     1   --> A_1  D_1  S_1  
     e(  2 -  2) =    -13.19110  eV     1   --> A_1  D_1  S_1  
     e(  3 -  3) =     -8.37399  eV     1   --> B_1  D_3  S_3  
     e(  4 -  4) =     -6.16481  eV     1   --> B_2  D_4  S_4  
     e(  5 -  5) =      1.70084  eV     1   --> B_2  D_4  S_4  
     e(  6 -  6) =      5.65537  eV     1   --> A_1  D_1  S_1  
     e(  7 -  7) =      6.07511  eV     1   --> A_1  D_1  S_1  
     e(  8 -  8) =      6.46044  eV     1   --> B_2  D_4  S_4  

 **************************************************************************

 **************************************************************************

                    xk=(   0.37000,   0.21362,   0.00000  )

     Band symmetry, C_2v (mm2)  point group:

     e(  1 -  1) =    -18.85652  eV     1   --> A_1  D_1  S_1  
     e(  2 -  2) =    -12.92828  eV     1   --> A_1  D_1  S_1  
     e(  3 -  3) =     -8.31394  eV     1   --> B_1  D_3  S_3  
     e(  4 -  4) =     -6.34813  eV     1   --> B_2  D_4  S_4  
     e(  5 -  5) =      1.97739  eV     1   --> B_2  D_4  S_4  
     e(  6 -  6) =      5.42628  eV     1   --> A_1  D_1  S_1  
     e(  7 -  7) =      6.07598  eV     1   --> A_1  D_1  S_1  
     e(  8 -  8) =      6.20839  eV     1   --> B_2  D_4  S_4  

 **************************************************************************

 **************************************************************************

                    xk=(   0.36000,   0.20785,   0.00000  )

     Band symmetry, C_2v (mm2)  point group:

     e(  1 -  1) =    -19.02758  eV     1   --> A_1  D_1  S_1  
     e(  2 -  2) =    -12.66307  eV     1   --> A_1  D_1  S_1  
     e(  3 -  3) =     -8.24945  eV     1   --> B_1  D_3  S_3  
     e(  4 -  4) =     -6.53081  eV     1   --> B_2  D_4  S_4  
     e(  5 -  5) =      2.25945  eV     1   --> B_2  D_4  S_4  
     e(  6 -  6) =      5.19249  eV     1   --> A_1  D_1  S_1  
     e(  7 -  7) =      5.96303  eV     1   --> B_2  D_4  S_4  
     e(  8 -  8) =      6.05530  eV     1   --> A_1  D_1  S_1  

 **************************************************************************

 **************************************************************************

                    xk=(   0.35000,   0.20207,   0.00000  )

     Band symmetry, C_2v (mm2)  point group:

     e(  1 -  1) =    -19.19454  eV     1   --> A_1  D_1  S_1  
     e(  2 -  2) =    -12.39572  eV     1   --> A_1  D_1  S_1  
     e(  3 -  3) =     -8.18062  eV     1   --> B_1  D_3  S_3  
     e(  4 -  4) =     -6.71207  eV     1   --> B_2  D_4  S_4  
     e(  5 -  5) =      2.54583  eV     1   --> B_2  D_4  S_4  
     e(  6 -  6) =      4.96128  eV     1   --> A_1  D_1  S_1  
     e(  7 -  7) =      5.72452  eV     1   --> B_2  D_4  S_4  
     e(  8 -  8) =      5.86170  eV     1   --> A_1  D_1  S_1  

 **************************************************************************

 **************************************************************************

                    xk=(   0.34000,   0.19630,   0.00000  )

     Band symmetry, C_2v (mm2)  point group:

     e(  1 -  1) =    -19.35730  eV     1   --> A_1  D_1  S_1  
     e(  2 -  2) =    -12.12649  eV     1   --> A_1  D_1  S_1  
     e(  3 -  3) =     -8.10755  eV     1   --> B_1  D_3  S_3  
     e(  4 -  4) =     -6.89125  eV     1   --> B_2  D_4  S_4  
     e(  5 -  5) =      2.83539  eV     1   --> B_2  D_4  S_4  
     e(  6 -  6) =      4.73480  eV     1   --> A_1  D_1  S_1  
     e(  7 -  7) =      5.49303  eV     1   --> B_2  D_4  S_4  
     e(  8 -  8) =      5.63129  eV     1   --> A_1  D_1  S_1  

 **************************************************************************

 **************************************************************************

                    xk=(   0.33000,   0.19053,   0.00000  )

     Band symmetry, C_2v (mm2)  point group:

     e(  1 -  1) =    -19.51580  eV     1   --> A_1  D_1  S_1  
     e(  2 -  2) =    -11.85564  eV     1   --> A_1  D_1  S_1  
     e(  3 -  3) =     -8.03035  eV     1   --> B_1  D_3  S_3  
     e(  4 -  4) =     -7.06782  eV     1   --> B_2  D_4  S_4  
     e(  5 -  5) =      3.12688  eV     1   --> B_2  D_4  S_4  
     e(  6 -  6) =      4.51388  eV     1   --> A_1  D_1  S_1  
     e(  7 -  7) =      5.26893  eV     1   --> B_2  D_4  S_4  
     e(  8 -  8) =      5.40413  eV     1   --> A_1  D_1  S_1  

 **************************************************************************

 **************************************************************************

                    xk=(   0.32000,   0.18475,   0.00000  )

     Band symmetry, C_2v (mm2)  point group:

     e(  1 -  1) =    -19.66996  eV     1   --> A_1  D_1  S_1  
     e(  2 -  2) =    -11.58344  eV     1   --> A_1  D_1  S_1  
     e(  3 -  3) =     -7.94915  eV     1   --> B_1  D_3  S_3  
     e(  4 -  4) =     -7.24133  eV     1   --> B_2  D_4  S_4  
     e(  5 -  5) =      3.41868  eV     1   --> B_2  D_4  S_4  
     e(  6 -  6) =      4.29892  eV     1   --> A_1  D_1  S_1  
     e(  7 -  7) =      5.05293  eV     1   --> B_2  D_4  S_4  
     e(  8 -  8) =      5.18287  eV     1   --> A_1  D_1  S_1  

 **************************************************************************

 **************************************************************************

                    xk=(   0.31000,   0.17898,   0.00000  )

     Band symmetry, C_2v (mm2)  point group:

     e(  1 -  1) =    -19.81974  eV     1   --> A_1  D_1  S_1  
     e(  2 -  2) =    -11.31017  eV     1   --> A_1  D_1  S_1  
     e(  3 -  3) =     -7.86410  eV     1   --> B_1  D_3  S_3  
     e(  4 -  4) =     -7.41139  eV     1   --> B_2  D_4  S_4  
     e(  5 -  5) =      3.70790  eV     1   --> B_2  D_4  S_4  
     e(  6 -  6) =      4.09013  eV     1   --> A_1  D_1  S_1  
     e(  7 -  7) =      4.84696  eV     1   --> B_2  D_4  S_4  
     e(  8 -  8) =      4.96807  eV     1   --> A_1  D_1  S_1  

 **************************************************************************

 **************************************************************************

                    xk=(   0.30000,   0.17321,   0.00000  )

     Band symmetry, C_2v (mm2)  point group:

     e(  1 -  1) =    -19.96509  eV     1   --> A_1  D_1  S_1  
     e(  2 -  2) =    -11.03613  eV     1   --> A_1  D_1  S_1  
     e(  3 -  3) =     -7.77533  eV     1   --> B_1  D_3  S_3  
     e(  4 -  4) =     -7.57768  eV     1   --> B_2  D_4  S_4  
     e(  5 -  5) =      3.88765  eV     1   --> A_1  D_1  S_1  
     e(  6 -  6) =      3.98605  eV     1   --> B_2  D_4  S_4  
     e(  7 -  7) =      4.65835  eV     1   --> B_2  D_4  S_4  
     e(  8 -  8) =      4.75991  eV     1   --> A_1  D_1  S_1  

 **************************************************************************

 **************************************************************************

                    xk=(   0.29000,   0.16743,   0.00000  )

     Band symmetry, C_2v (mm2)  point group:

     e(  1 -  1) =    -20.10597  eV     1   --> A_1  D_1  S_1  
     e(  2 -  2) =    -10.76162  eV     1   --> A_1  D_1  S_1  
     e(  3 -  3) =     -7.73994  eV     1   --> B_2  D_4  S_4  
     e(  4 -  4) =     -7.68303  eV     1   --> B_1  D_3  S_3  
     e(  5 -  5) =      3.69155  eV     1   --> A_1  D_1  S_1  
     e(  6 -  6) =      4.20078  eV     1   --> B_2  D_4  S_4  
     e(  7 -  7) =      4.53748  eV     1   --> B_2  D_4  S_4  
     e(  8 -  8) =      4.55848  eV     1   --> A_1  D_1  S_1  

 **************************************************************************

 **************************************************************************

                    xk=(   0.28000,   0.16166,   0.00000  )

     Band symmetry, C_2v (mm2)  point group:

     e(  1 -  1) =    -20.24233  eV     1   --> A_1  D_1  S_1  
     e(  2 -  2) =    -10.48699  eV     1   --> A_1  D_1  S_1  
     e(  3 -  3) =     -7.89792  eV     1   --> B_2  D_4  S_4  
     e(  4 -  4) =     -7.58737  eV     1   --> B_1  D_3  S_3  
     e(  5 -  5) =      3.50190  eV     1   --> A_1  D_1  S_1  
     e(  6 -  6) =      4.16543  eV     1   --> B_2  D_4  S_4  
     e(  7 -  7) =      4.36381  eV     1   --> A_1  D_1  S_1  
     e(  8 -  8) =      4.66595  eV     1   --> B_2  D_4  S_4  

 **************************************************************************

 **************************************************************************

                    xk=(   0.27000,   0.15588,   0.00000  )

     Band symmetry, C_2v (mm2)  point group:

     e(  1 -  1) =    -20.37414  eV     1   --> A_1  D_1  S_1  
     e(  2 -  2) =    -10.21258  eV     1   --> A_1  D_1  S_1  
     e(  3 -  3) =     -8.05144  eV     1   --> B_2  D_4  S_4  
     e(  4 -  4) =     -7.48857  eV     1   --> B_1  D_3  S_3  
     e(  5 -  5) =      3.31875  eV     1   --> A_1  D_1  S_1  
     e(  6 -  6) =      4.00808  eV     1   --> B_2  D_4  S_4  
     e(  7 -  7) =      4.17594  eV     1   --> A_1  D_1  S_1  
     e(  8 -  8) =      4.88801  eV     1   --> B_2  D_4  S_4  

 **************************************************************************

 **************************************************************************

                    xk=(   0.26000,   0.15011,   0.00000  )

     Band symmetry, C_2v (mm2)  point group:

     e(  1 -  1) =    -20.50137  eV     1   --> A_1  D_1  S_1  
     e(  2 -  2) =     -9.93877  eV     1   --> A_1  D_1  S_1  
     e(  3 -  3) =     -8.20030  eV     1   --> B_2  D_4  S_4  
     e(  4 -  4) =     -7.38684  eV     1   --> B_1  D_3  S_3  
     e(  5 -  5) =      3.14212  eV     1   --> A_1  D_1  S_1  
     e(  6 -  6) =      3.83816  eV     1   --> B_2  D_4  S_4  
     e(  7 -  7) =      3.99486  eV     1   --> A_1  D_1  S_1  
     e(  8 -  8) =      4.92264  eV     1   --> B_2  D_4  S_4  

 **************************************************************************

 **************************************************************************

                    xk=(   0.25000,   0.14434,   0.00000  )

     Band symmetry, C_2v (mm2)  point group:

     e(  1 -  1) =    -20.62400  eV     1   --> A_1  D_1  S_1  
     e(  2 -  2) =     -9.66598  eV     1   --> A_1  D_1  S_1  
     e(  3 -  3) =     -8.34436  eV     1   --> B_2  D_4  S_4  
     e(  4 -  4) =     -7.28244  eV     1   --> B_1  D_3  S_3  
     e(  5 -  5) =      2.97206  eV     1   --> A_1  D_1  S_1  
     e(  6 -  6) =      3.66995  eV     1   --> B_2  D_4  S_4  
     e(  7 -  7) =      3.82060  eV     1   --> A_1  D_1  S_1  
     e(  8 -  8) =      4.78692  eV     1   --> B_2  D_4  S_4  

 **************************************************************************

 **************************************************************************

                    xk=(   0.24000,   0.13856,   0.00000  )

     Band symmetry, C_2v (mm2)  point group:

     e(  1 -  1) =    -20.74200  eV     1   --> A_1  D_1  S_1  
     e(  2 -  2) =     -9.39464  eV     1   --> A_1  D_1  S_1  
     e(  3 -  3) =     -8.48348  eV     1   --> B_2  D_4  S_4  
     e(  4 -  4) =     -7.17563  eV     1   --> B_1  D_3  S_3  
     e(  5 -  5) =      2.80856  eV     1   --> A_1  D_1  S_1  
     e(  6 -  6) =      3.50648  eV     1   --> B_2  D_4  S_4  
     e(  7 -  7) =      3.65315  eV     1   --> A_1  D_1  S_1  
     e(  8 -  8) =      4.63168  eV     1   --> B_2  D_4  S_4  

 **************************************************************************

 **************************************************************************

                    xk=(   0.23000,   0.13279,   0.00000  )

     Band symmetry, C_2v (mm2)  point group:

     e(  1 -  1) =    -20.85533  eV     1   --> A_1  D_1  S_1  
     e(  2 -  2) =     -9.12523  eV     1   --> A_1  D_1  S_1  
     e(  3 -  3) =     -8.61755  eV     1   --> B_2  D_4  S_4  
     e(  4 -  4) =     -7.06670  eV     1   --> B_1  D_3  S_3  
     e(  5 -  5) =      2.65167  eV     1   --> A_1  D_1  S_1  
     e(  6 -  6) =      3.34878  eV     1   --> B_2  D_4  S_4  
     e(  7 -  7) =      3.49253  eV     1   --> A_1  D_1  S_1  
     e(  8 -  8) =      4.47745  eV     1   --> B_2  D_4  S_4  

 **************************************************************************

 **************************************************************************

                    xk=(   0.22000,   0.12702,   0.00000  )

     Band symmetry, C_2v (mm2)  point group:

     e(  1 -  1) =    -20.96399  eV     1   --> A_1  D_1  S_1  
     e(  2 -  2) =     -8.85826  eV     1   --> A_1  D_1  S_1  
     e(  3 -  3) =     -8.74645  eV     1   --> B_2  D_4  S_4  
     e(  4 -  4) =     -6.95599  eV     1   --> B_1  D_3  S_3  
     e(  5 -  5) =      2.50138  eV     1   --> A_1  D_1  S_1  
     e(  6 -  6) =      3.19727  eV     1   --> B_2  D_4  S_4  
     e(  7 -  7) =      3.33874  eV     1   --> A_1  D_1  S_1  
     e(  8 -  8) =      4.32786  eV     1   --> B_2  D_4  S_4  

 **************************************************************************

 **************************************************************************

                    xk=(   0.21000,   0.12124,   0.00000  )

     Band symmetry, C_2v (mm2)  point group:

     e(  1 -  1) =    -21.06794  eV     1   --> A_1  D_1  S_1  
     e(  2 -  2) =     -8.87011  eV     1   --> B_2  D_4  S_4  
     e(  3 -  3) =     -8.59427  eV     1   --> A_1  D_1  S_1  
     e(  4 -  4) =     -6.84384  eV     1   --> B_1  D_3  S_3  
     e(  5 -  5) =      2.35772  eV     1   --> A_1  D_1  S_1  
     e(  6 -  6) =      3.05218  eV     1   --> B_2  D_4  S_4  
     e(  7 -  7) =      3.19177  eV     1   --> A_1  D_1  S_1  
     e(  8 -  8) =      4.18402  eV     1   --> B_2  D_4  S_4  

 **************************************************************************

 **************************************************************************

                    xk=(   0.20000,   0.11547,   0.00000  )

     Band symmetry, C_2v (mm2)  point group:

     e(  1 -  1) =    -21.16718  eV     1   --> A_1  D_1  S_1  
     e(  2 -  2) =     -8.98843  eV     1   --> B_2  D_4  S_4  
     e(  3 -  3) =     -8.33385  eV     1   --> A_1  D_1  S_1  
     e(  4 -  4) =     -6.73065  eV     1   --> B_1  D_3  S_3  
     e(  5 -  5) =      2.22069  eV     1   --> A_1  D_1  S_1  
     e(  6 -  6) =      2.91362  eV     1   --> B_2  D_4  S_4  
     e(  7 -  7) =      3.05163  eV     1   --> A_1  D_1  S_1  
     e(  8 -  8) =      4.04638  eV     1   --> B_2  D_4  S_4  

 **************************************************************************

 **************************************************************************

                    xk=(   0.19000,   0.10970,   0.00000  )

     Band symmetry, C_2v (mm2)  point group:

     e(  1 -  1) =    -21.26167  eV     1   --> A_1  D_1  S_1  
     e(  2 -  2) =     -9.10134  eV     1   --> B_2  D_4  S_4  
     e(  3 -  3) =     -8.07763  eV     1   --> A_1  D_1  S_1  
     e(  4 -  4) =     -6.61683  eV     1   --> B_1  D_3  S_3  
     e(  5 -  5) =      2.09031  eV     1   --> A_1  D_1  S_1  
     e(  6 -  6) =      2.78168  eV     1   --> B_2  D_4  S_4  
     e(  7 -  7) =      2.91833  eV     1   --> A_1  D_1  S_1  
     e(  8 -  8) =      3.91516  eV     1   --> B_2  D_4  S_4  

 **************************************************************************

 **************************************************************************

                    xk=(   0.18000,   0.10392,   0.00000  )

     Band symmetry, C_2v (mm2)  point group:

     e(  1 -  1) =    -21.35141  eV     1   --> A_1  D_1  S_1  
     e(  2 -  2) =     -9.20877  eV     1   --> B_2  D_4  S_4  
     e(  3 -  3) =     -7.82630  eV     1   --> A_1  D_1  S_1  
     e(  4 -  4) =     -6.50284  eV     1   --> B_1  D_3  S_3  
     e(  5 -  5) =      1.96659  eV     1   --> A_1  D_1  S_1  
     e(  6 -  6) =      2.65639  eV     1   --> B_2  D_4  S_4  
     e(  7 -  7) =      2.79186  eV     1   --> A_1  D_1  S_1  
     e(  8 -  8) =      3.79047  eV     1   --> B_2  D_4  S_4  

 **************************************************************************

 **************************************************************************

                    xk=(   0.17000,   0.09815,   0.00000  )

     Band symmetry, C_2v (mm2)  point group:

     e(  1 -  1) =    -21.43638  eV     1   --> A_1  D_1  S_1  
     e(  2 -  2) =     -9.31068  eV     1   --> B_2  D_4  S_4  
     e(  3 -  3) =     -7.58059  eV     1   --> A_1  D_1  S_1  
     e(  4 -  4) =     -6.38918  eV     1   --> B_1  D_3  S_3  
     e(  5 -  5) =      1.84952  eV     1   --> A_1  D_1  S_1  
     e(  6 -  6) =      2.53779  eV     1   --> B_2  D_4  S_4  
     e(  7 -  7) =      2.67223  eV     1   --> A_1  D_1  S_1  
     e(  8 -  8) =      3.67239  eV     1   --> B_2  D_4  S_4  

 **************************************************************************

 **************************************************************************

                    xk=(   0.16000,   0.09238,   0.00000  )

     Band symmetry, C_2v (mm2)  point group:

     e(  1 -  1) =    -21.51656  eV     1   --> A_1  D_1  S_1  
     e(  2 -  2) =     -9.40699  eV     1   --> B_2  D_4  S_4  
     e(  3 -  3) =     -7.34126  eV     1   --> A_1  D_1  S_1  
     e(  4 -  4) =     -6.27638  eV     1   --> B_1  D_3  S_3  
     e(  5 -  5) =      1.73913  eV     1   --> A_1  D_1  S_1  
     e(  6 -  6) =      2.42591  eV     1   --> B_2  D_4  S_4  
     e(  7 -  7) =      2.55943  eV     1   --> A_1  D_1  S_1  
     e(  8 -  8) =      3.56095  eV     1   --> B_2  D_4  S_4  

 **************************************************************************

 **************************************************************************

                    xk=(   0.15000,   0.08660,   0.00000  )

     Band symmetry, C_2v (mm2)  point group:

     e(  1 -  1) =    -21.59195  eV     1   --> A_1  D_1  S_1  
     e(  2 -  2) =     -9.49767  eV     1   --> B_2  D_4  S_4  
     e(  3 -  3) =     -7.10916  eV     1   --> A_1  D_1  S_1  
     e(  4 -  4) =     -6.16504  eV     1   --> B_1  D_3  S_3  
     e(  5 -  5) =      1.63541  eV     1   --> A_1  D_1  S_1  
     e(  6 -  6) =      2.32076  eV     1   --> B_2  D_4  S_4  
     e(  7 -  7) =      2.45347  eV     1   --> A_1  D_1  S_1  
     e(  8 -  8) =      3.45620  eV     1   --> B_2  D_4  S_4  

 **************************************************************************

 **************************************************************************

                    xk=(   0.14000,   0.08083,   0.00000  )

     Band symmetry, C_2v (mm2)  point group:

     e(  1 -  1) =    -21.66253  eV     1   --> A_1  D_1  S_1  
     e(  2 -  2) =     -9.58267  eV     1   --> B_2  D_4  S_4  
     e(  3 -  3) =     -6.88515  eV     1   --> A_1  D_1  S_1  
     e(  4 -  4) =     -6.05576  eV     1   --> B_1  D_3  S_3  
     e(  5 -  5) =      1.53837  eV     1   --> A_1  D_1  S_1  
     e(  6 -  6) =      2.22236  eV     1   --> B_2  D_4  S_4  
     e(  7 -  7) =      2.35434  eV     1   --> A_1  D_1  S_1  
     e(  8 -  8) =      3.35815  eV     1   --> B_2  D_4  S_4  

 **************************************************************************

 **************************************************************************

                    xk=(   0.13000,   0.07506,   0.00000  )

     Band symmetry, C_2v (mm2)  point group:

     e(  1 -  1) =    -21.72828  eV     1   --> A_1  D_1  S_1  
     e(  2 -  2) =     -9.66196  eV     1   --> B_2  D_4  S_4  
     e(  3 -  3) =     -6.67017  eV     1   --> A_1  D_1  S_1  
     e(  4 -  4) =     -5.94922  eV     1   --> B_1  D_3  S_3  
     e(  5 -  5) =      1.44802  eV     1   --> A_1  D_1  S_1  
     e(  6 -  6) =      2.13071  eV     1   --> B_2  D_4  S_4  
     e(  7 -  7) =      2.26205  eV     1   --> A_1  D_1  S_1  
     e(  8 -  8) =      3.26683  eV     1   --> B_2  D_4  S_4  

 **************************************************************************

 **************************************************************************

                    xk=(   0.12000,   0.06928,   0.00000  )

     Band symmetry, C_2v (mm2)  point group:

     e(  1 -  1) =    -21.78921  eV     1   --> A_1  D_1  S_1  
     e(  2 -  2) =     -9.73550  eV     1   --> B_2  D_4  S_4  
     e(  3 -  3) =     -6.46518  eV     1   --> A_1  D_1  S_1  
     e(  4 -  4) =     -5.84612  eV     1   --> B_1  D_3  S_3  
     e(  5 -  5) =      1.36435  eV     1   --> A_1  D_1  S_1  
     e(  6 -  6) =      2.04583  eV     1   --> B_2  D_4  S_4  
     e(  7 -  7) =      2.17660  eV     1   --> A_1  D_1  S_1  
     e(  8 -  8) =      3.18223  eV     1   --> B_2  D_4  S_4  

 **************************************************************************

 **************************************************************************

                    xk=(   0.11000,   0.06351,   0.00000  )

     Band symmetry, C_2v (mm2)  point group:

     e(  1 -  1) =    -21.84529  eV     1   --> A_1  D_1  S_1  
     e(  2 -  2) =     -9.80325  eV     1   --> B_2  D_4  S_4  
     e(  3 -  3) =     -6.27119  eV     1   --> A_1  D_1  S_1  
     e(  4 -  4) =     -5.74719  eV     1   --> B_1  D_3  S_3  
     e(  5 -  5) =      1.28738  eV     1   --> A_1  D_1  S_1  
     e(  6 -  6) =      1.96772  eV     1   --> B_2  D_4  S_4  
     e(  7 -  7) =      2.09799  eV     1   --> A_1  D_1  S_1  
     e(  8 -  8) =      3.10438  eV     1   --> B_2  D_4  S_4  

 **************************************************************************

 **************************************************************************

                    xk=(   0.10000,   0.05774,   0.00000  )

     Band symmetry, C_2v (mm2)  point group:

     e(  1 -  1) =    -21.89653  eV     1   --> A_1  D_1  S_1  
     e(  2 -  2) =     -9.86520  eV     1   --> B_2  D_4  S_4  
     e(  3 -  3) =     -6.08924  eV     1   --> A_1  D_1  S_1  
     e(  4 -  4) =     -5.65320  eV     1   --> B_1  D_3  S_3  
     e(  5 -  5) =      1.21709  eV     1   --> A_1  D_1  S_1  
     e(  6 -  6) =      1.89639  eV     1   --> B_2  D_4  S_4  
     e(  7 -  7) =      2.02621  eV     1   --> A_1  D_1  S_1  
     e(  8 -  8) =      3.03328  eV     1   --> B_2  D_4  S_4  

 **************************************************************************

 **************************************************************************

                    xk=(   0.09000,   0.05196,   0.00000  )

     Band symmetry, C_2v (mm2)  point group:

     e(  1 -  1) =    -21.94291  eV     1   --> A_1  D_1  S_1  
     e(  2 -  2) =     -9.92132  eV     1   --> B_2  D_4  S_4  
     e(  3 -  3) =     -5.92039  eV     1   --> A_1  D_1  S_1  
     e(  4 -  4) =     -5.56493  eV     1   --> B_1  D_3  S_3  
     e(  5 -  5) =      1.15351  eV     1   --> A_1  D_1  S_1  
     e(  6 -  6) =      1.83184  eV     1   --> B_2  D_4  S_4  
     e(  7 -  7) =      1.96127  eV     1   --> A_1  D_1  S_1  
     e(  8 -  8) =      2.96894  eV     1   --> B_2  D_4  S_4  

 **************************************************************************

 **************************************************************************

                    xk=(   0.08000,   0.04619,   0.00000  )

     Band symmetry, C_2v (mm2)  point group:

     e(  1 -  1) =    -21.98442  eV     1   --> A_1  D_1  S_1  
     e(  2 -  2) =     -9.97159  eV     1   --> B_2  D_4  S_4  
     e(  3 -  3) =     -5.76568  eV     1   --> A_1  D_1  S_1  
     e(  4 -  4) =     -5.48318  eV     1   --> B_1  D_3  S_3  
     e(  5 -  5) =      1.09662  eV     1   --> A_1  D_1  S_1  
     e(  6 -  6) =      1.77408  eV     1   --> B_2  D_4  S_4  
     e(  7 -  7) =      1.90317  eV     1   --> A_1  D_1  S_1  
     e(  8 -  8) =      2.91136  eV     1   --> B_2  D_4  S_4  

 **************************************************************************

 **************************************************************************

                    xk=(   0.07000,   0.04041,   0.00000  )

     Band symmetry, C_2v (mm2)  point group:

     e(  1 -  1) =    -22.02106  eV     1   --> A_1  D_1  S_1  
     e(  2 -  2) =    -10.01598  eV     1   --> B_2  D_4  S_4  
     e(  3 -  3) =     -5.62617  eV     1   --> A_1  D_1  S_1  
     e(  4 -  4) =     -5.40874  eV     1   --> B_1  D_3  S_3  
     e(  5 -  5) =      1.04642  eV     1   --> A_1  D_1  S_1  
     e(  6 -  6) =      1.72311  eV     1   --> B_2  D_4  S_4  
     e(  7 -  7) =      1.85191  eV     1   --> A_1  D_1  S_1  
     e(  8 -  8) =      2.86055  eV     1   --> B_2  D_4  S_4  

 **************************************************************************

 **************************************************************************

                    xk=(   0.06000,   0.03464,   0.00000  )

     Band symmetry, C_2v (mm2)  point group:

     e(  1 -  1) =    -22.05283  eV     1   --> A_1  D_1  S_1  
     e(  2 -  2) =    -10.05449  eV     1   --> B_2  D_4  S_4  
     e(  3 -  3) =     -5.50286  eV     1   --> A_1  D_1  S_1  
     e(  4 -  4) =     -5.34237  eV     1   --> B_1  D_3  S_3  
     e(  5 -  5) =      1.00293  eV     1   --> A_1  D_1  S_1  
     e(  6 -  6) =      1.67892  eV     1   --> B_2  D_4  S_4  
     e(  7 -  7) =      1.80748  eV     1   --> A_1  D_1  S_1  
     e(  8 -  8) =      2.81650  eV     1   --> B_2  D_4  S_4  

 **************************************************************************

 **************************************************************************

                    xk=(   0.05000,   0.02887,   0.00000  )

     Band symmetry, C_2v (mm2)  point group:

     e(  1 -  1) =    -22.07972  eV     1   --> A_1  D_1  S_1  
     e(  2 -  2) =    -10.08709  eV     1   --> B_2  D_4  S_4  
     e(  3 -  3) =     -5.39670  eV     1   --> A_1  D_1  S_1  
     e(  4 -  4) =     -5.28480  eV     1   --> B_1  D_3  S_3  
     e(  5 -  5) =      0.96612  eV     1   --> A_1  D_1  S_1  
     e(  6 -  6) =      1.64154  eV     1   --> B_2  D_4  S_4  
     e(  7 -  7) =      1.76989  eV     1   --> A_1  D_1  S_1  
     e(  8 -  8) =      2.77923  eV     1   --> B_2  D_4  S_4  

 **************************************************************************

 **************************************************************************

                    xk=(   0.04000,   0.02309,   0.00000  )

     Band symmetry, C_2v (mm2)  point group:

     e(  1 -  1) =    -22.10173  eV     1   --> A_1  D_1  S_1  
     e(  2 -  2) =    -10.11378  eV     1   --> B_2  D_4  S_4  
     e(  3 -  3) =     -5.30855  eV     1   --> A_1  D_1  S_1  
     e(  4 -  4) =     -5.23669  eV     1   --> B_1  D_3  S_3  
     e(  5 -  5) =      0.93601  eV     1   --> A_1  D_1  S_1  
     e(  6 -  6) =      1.61094  eV     1   --> B_2  D_4  S_4  
     e(  7 -  7) =      1.73913  eV     1   --> A_1  D_1  S_1  
     e(  8 -  8) =      2.74873  eV     1   --> B_2  D_4  S_4  

 **************************************************************************

 **************************************************************************

                    xk=(   0.03000,   0.01732,   0.00000  )

     Band symmetry, C_2v (mm2)  point group:

     e(  1 -  1) =    -22.11885  eV     1   --> A_1  D_1  S_1  
     e(  2 -  2) =    -10.13455  eV     1   --> B_2  D_4  S_4  
     e(  3 -  3) =     -5.23915  eV     1   --> A_1  D_1  S_1  
     e(  4 -  4) =     -5.19862  eV     1   --> B_1  D_3  S_3  
     e(  5 -  5) =      0.91260  eV     1   --> A_1  D_1  S_1  
     e(  6 -  6) =      1.58715  eV     1   --> B_2  D_4  S_4  
     e(  7 -  7) =      1.71521  eV     1   --> A_1  D_1  S_1  
     e(  8 -  8) =      2.72500  eV     1   --> B_2  D_4  S_4  

 **************************************************************************

 **************************************************************************

                    xk=(   0.02000,   0.01155,   0.00000  )

     Band symmetry, C_2v (mm2)  point group:

     e(  1 -  1) =    -22.13108  eV     1   --> A_1  D_1  S_1  
     e(  2 -  2) =    -10.14939  eV     1   --> B_2  D_4  S_4  
     e(  3 -  3) =     -5.18912  eV     1   --> A_1  D_1  S_1  
     e(  4 -  4) =     -5.17108  eV     1   --> B_1  D_3  S_3  
     e(  5 -  5) =      0.89587  eV     1   --> A_1  D_1  S_1  
     e(  6 -  6) =      1.57015  eV     1   --> B_2  D_4  S_4  
     e(  7 -  7) =      1.69812  eV     1   --> A_1  D_1  S_1  
     e(  8 -  8) =      2.70806  eV     1   --> B_2  D_4  S_4  

 **************************************************************************

 **************************************************************************

                    xk=(   0.01000,   0.00577,   0.00000  )

     Band symmetry, C_2v (mm2)  point group:

     e(  1 -  1) =    -22.13841  eV     1   --> A_1  D_1  S_1  
     e(  2 -  2) =    -10.15830  eV     1   --> B_2  D_4  S_4  
     e(  3 -  3) =     -5.15892  eV     1   --> A_1  D_1  S_1  
     e(  4 -  4) =     -5.15440  eV     1   --> B_1  D_3  S_3  
     e(  5 -  5) =      0.88584  eV     1   --> A_1  D_1  S_1  
     e(  6 -  6) =      1.55995  eV     1   --> B_2  D_4  S_4  
     e(  7 -  7) =      1.68787  eV     1   --> A_1  D_1  S_1  
     e(  8 -  8) =      2.69789  eV     1   --> B_2  D_4  S_4  

 **************************************************************************

 **************************************************************************

                    xk=(   0.00000,   0.00000,   0.00000  )

     point group D_6h(6/mmm)
     there are 12 classes
     the character table:

       E     2C6   2C3   C2    3C2'  3C2'' i     2S3   2S6   s_h   3s_d  3s_v 
A_1g   1.00  1.00  1.00  1.00  1.00  1.00  1.00  1.00  1.00  1.00  1.00  1.00
A_2g   1.00  1.00  1.00  1.00 -1.00 -1.00  1.00  1.00  1.00  1.00 -1.00 -1.00
B_1g   1.00 -1.00  1.00 -1.00  1.00 -1.00  1.00 -1.00  1.00 -1.00  1.00 -1.00
B_2g   1.00 -1.00  1.00 -1.00 -1.00  1.00  1.00 -1.00  1.00 -1.00 -1.00  1.00
E_1g   2.00  1.00 -1.00 -2.00  0.00  0.00  2.00  1.00 -1.00 -2.00  0.00  0.00
E_2g   2.00 -1.00 -1.00  2.00  0.00  0.00  2.00 -1.00 -1.00  2.00  0.00  0.00
A_1u   1.00  1.00  1.00  1.00  1.00  1.00 -1.00 -1.00 -1.00 -1.00 -1.00 -1.00
A_2u   1.00  1.00  1.00  1.00 -1.00 -1.00 -1.00 -1.00 -1.00 -1.00  1.00  1.00
B_1u   1.00 -1.00  1.00 -1.00  1.00 -1.00 -1.00  1.00 -1.00  1.00 -1.00  1.00
B_2u   1.00 -1.00  1.00 -1.00 -1.00  1.00 -1.00  1.00 -1.00  1.00  1.00 -1.00
E_1u   2.00  1.00 -1.00 -2.00  0.00  0.00 -2.00 -1.00  1.00  2.00  0.00  0.00
E_2u   2.00 -1.00 -1.00  2.00  0.00  0.00 -2.00  1.00  1.00 -2.00  0.00  0.00

     the symmetry operations in each class and the name of the first element:

     E        1
                                                                 
     2C6      5    6
                                                                 
     2C3      7    8
                                                                 
     C2       2
                                                                 
     3C2'     4   12   11
                                                                 
     3C2''    3    9   10
                                                                 
     i       13
                                                                 
     2S3     17   18
                                                                 
     2S6     19   20
                                                                 
     s_h     14
                                                                 
     3s_d    16   24   23
                                                                 
     3s_v    15   21   22
                                                                 

     Band symmetry, D_6h(6/mmm) point group:

     e(  1 -  1) =    -22.14086  eV     1   --> A_1g           
     e(  2 -  2) =    -10.16127  eV     1   --> A_2u           
     e(  3 -  4) =     -5.14882  eV     2   --> E_2g           
     e(  5 -  5) =      0.88249  eV     1   --> A_1g           
     e(  6 -  6) =      1.55655  eV     1   --> A_2u           
     e(  7 -  7) =      1.68445  eV     1   --> A_1g           
     e(  8 -  8) =      2.69450  eV     1   --> A_2u           

 **************************************************************************

     BANDS        :   1m22.14s CPU   1m54.95s WALL


   This run was terminated on:  12:41:48   5Aug2023            

=------------------------------------------------------------------------------=
   JOB DONE.
=------------------------------------------------------------------------------=
