
     Program PWSCF v.6.7MaX starts on  1Sep2023 at 10:32:43 

     This program is part of the open-source Quantum ESPRESSO suite
     for quantum simulation of materials; please cite
         "P. Giannozzi et al., J. Phys.:Condens. Matter 21 395502 (2009);
         "P. Giannozzi et al., J. Phys.:Condens. Matter 29 465901 (2017);
          URL http://www.quantum-espresso.org", 
     in publications or presentations arising from this work. More details at
     http://www.quantum-espresso.org/quote

     Parallel version (MPI), running on     2 processors

     MPI processes distributed on     1 nodes
     R & G space division:  proc/nbgrp/npool/nimage =       2
     Waiting for input...
     Reading input from standard input

     Current dimensions of program PWSCF are:
     Max number of different atomic species (ntypx) = 10
     Max number of k-points (npk) =  40000
     Max angular momentum in pseudopotentials (lmaxx) =  3
     file C.pbe-n-kjpaw_psl.1.0.0.UPF: wavefunction(s)  2S 2P renormalized

     Subspace diagonalization in iterative solution of the eigenvalue problem:
     a serial algorithm will be used


     Parallelization info
     --------------------
     sticks:   dense  smooth     PW     G-vecs:    dense   smooth      PW
     Min         291     291     81                46249    46249    7405
     Max         292     292     82                46266    46266    7432
     Sum         583     583    163                92515    92515   14837



     bravais-lattice index     =           12
     lattice parameter (alat)  =       4.5675  a.u.
     unit-cell volume          =     682.8268 (a.u.)^3
     number of atoms/cell      =            2
     number of atomic types    =            1
     number of electrons       =         8.00
     number of Kohn-Sham states=            8
     kinetic-energy cutoff     =     100.0000  Ry
     charge density cutoff     =     400.0000  Ry
     scf convergence threshold =      1.0E-10
     mixing beta               =       0.5000
     number of iterations used =            8  plain     mixing
     Exchange-correlation= SLA  PW   PBX  PBC
                           (   1   4   3   4   0   0   0)

     celldm(1)=   4.567468  celldm(2)=   1.000000  celldm(3)=   8.274721
     celldm(4)=  -0.500000  celldm(5)=   0.000000  celldm(6)=   0.000000

     crystal axes: (cart. coord. in units of alat)
               a(1) = (   1.000000   0.000000   0.000000 )  
               a(2) = (  -0.500000   0.866025   0.000000 )  
               a(3) = (   0.000000   0.000000   8.274721 )  

     reciprocal axes: (cart. coord. in units 2 pi/alat)
               b(1) = (  1.000000  0.577350 -0.000000 )  
               b(2) = (  0.000000  1.154701  0.000000 )  
               b(3) = (  0.000000 -0.000000  0.120850 )  


     PseudoPot. # 1 for C  read from file:
     ./Pseudo/C.pbe-n-kjpaw_psl.1.0.0.UPF
     MD5 check sum: ecdf03482cb4269f2fcfa842d572f30f
     Pseudo is Projector augmented-wave + core cor, Zval =  4.0
     Generated using &quot;atomic&quot; code by A. Dal Corso  v.6.3
     Shape of augmentation charge: PSQ
     Using radial grid of 1073 points,  4 beta functions with: 
                l(1) =   0
                l(2) =   0
                l(3) =   1
                l(4) =   1
     Q(r) pseudized with 0 coefficients 


     atomic species   valence    mass     pseudopotential
        C              4.00    12.01070     C ( 1.00)

     24 Sym. Ops., with inversion, found (18 have fractional translation)



   Cartesian axes

     site n.     atom                  positions (alat units)
         1           C   tau(   1) = (   0.0000000   0.0000000   2.0686802  )
         2           C   tau(   2) = (  -0.0000000   0.5773503   2.0686802  )

     number of k points=    37
                       cart. coord. in units 2pi/alat
        k(    1) = (   0.0000000   0.0000000   0.0000000), wk =   0.0061728
        k(    2) = (   0.0000000   0.0641500   0.0000000), wk =   0.0370370
        k(    3) = (   0.0000000   0.1283001   0.0000000), wk =   0.0370370
        k(    4) = (   0.0000000   0.1924501   0.0000000), wk =   0.0370370
        k(    5) = (   0.0000000   0.2566001   0.0000000), wk =   0.0370370
        k(    6) = (   0.0000000   0.3207501   0.0000000), wk =   0.0370370
        k(    7) = (   0.0000000   0.3849002   0.0000000), wk =   0.0370370
        k(    8) = (   0.0000000   0.4490502   0.0000000), wk =   0.0370370
        k(    9) = (   0.0000000   0.5132002   0.0000000), wk =   0.0370370
        k(   10) = (   0.0000000  -0.5773503   0.0000000), wk =   0.0185185
        k(   11) = (   0.0555556   0.0962250   0.0000000), wk =   0.0370370
        k(   12) = (   0.0555556   0.1603751   0.0000000), wk =   0.0740741
        k(   13) = (   0.0555556   0.2245251   0.0000000), wk =   0.0740741
        k(   14) = (   0.0555556   0.2886751   0.0000000), wk =   0.0740741
        k(   15) = (   0.0555556   0.3528252   0.0000000), wk =   0.0740741
        k(   16) = (   0.0555556   0.4169752   0.0000000), wk =   0.0740741
        k(   17) = (   0.0555556   0.4811252   0.0000000), wk =   0.0740741
        k(   18) = (   0.0555556   0.5452753   0.0000000), wk =   0.0740741
        k(   19) = (   0.1111111   0.1924501   0.0000000), wk =   0.0370370
        k(   20) = (   0.1111111   0.2566001   0.0000000), wk =   0.0740741
        k(   21) = (   0.1111111   0.3207501   0.0000000), wk =   0.0740741
        k(   22) = (   0.1111111   0.3849002   0.0000000), wk =   0.0740741
        k(   23) = (   0.1111111   0.4490502   0.0000000), wk =   0.0740741
        k(   24) = (   0.1111111   0.5132002   0.0000000), wk =   0.0740741
        k(   25) = (   0.1111111   0.5773503   0.0000000), wk =   0.0370370
        k(   26) = (   0.1666667   0.2886751   0.0000000), wk =   0.0370370
        k(   27) = (   0.1666667   0.3528252   0.0000000), wk =   0.0740741
        k(   28) = (   0.1666667   0.4169752   0.0000000), wk =   0.0740741
        k(   29) = (   0.1666667   0.4811252   0.0000000), wk =   0.0740741
        k(   30) = (   0.1666667   0.5452753   0.0000000), wk =   0.0740741
        k(   31) = (   0.2222222   0.3849002   0.0000000), wk =   0.0370370
        k(   32) = (   0.2222222   0.4490502   0.0000000), wk =   0.0740741
        k(   33) = (   0.2222222   0.5132002   0.0000000), wk =   0.0740741
        k(   34) = (   0.2222222   0.5773503   0.0000000), wk =   0.0370370
        k(   35) = (   0.2777778   0.4811252   0.0000000), wk =   0.0370370
        k(   36) = (   0.2777778   0.5452753   0.0000000), wk =   0.0740741
        k(   37) = (   0.3333333   0.5773503   0.0000000), wk =   0.0123457

     Dense  grid:    92515 G-vectors     FFT dimensions: (  30,  30, 250)

     Estimated max dynamical RAM per process >      87.32 MB

     Estimated total dynamical RAM >     174.64 MB

     Check: negative core charge=   -0.000002

     Initial potential from superposition of free atoms

     starting charge    7.99992, renormalised to    8.00000

     negative rho (up, down):  1.062E-04 0.000E+00
     Starting wfcs are    8 randomized atomic wfcs
     Checking if some PAW data can be deallocated... 

     total cpu time spent up to now is       15.1 secs

     Self-consistent Calculation

     iteration #  1     ecut=   100.00 Ry     beta= 0.50
     Davidson diagonalization with overlap
     ethr =  1.00E-02,  avg # of iterations =  6.4

     negative rho (up, down):  1.072E-04 0.000E+00

     total cpu time spent up to now is       51.4 secs

     total energy              =     -36.87597593 Ry
     estimated scf accuracy    <       0.22535273 Ry

     iteration #  2     ecut=   100.00 Ry     beta= 0.50
     Davidson diagonalization with overlap
     ethr =  2.82E-03,  avg # of iterations =  2.6

     negative rho (up, down):  1.203E-04 0.000E+00

     total cpu time spent up to now is       71.6 secs

     total energy              =     -36.87916801 Ry
     estimated scf accuracy    <       0.02250762 Ry

     iteration #  3     ecut=   100.00 Ry     beta= 0.50
     Davidson diagonalization with overlap
     ethr =  2.81E-04,  avg # of iterations =  8.7

     negative rho (up, down):  1.265E-04 0.000E+00

     total cpu time spent up to now is      109.2 secs

     total energy              =     -36.88348836 Ry
     estimated scf accuracy    <       0.00072801 Ry

     iteration #  4     ecut=   100.00 Ry     beta= 0.50
     Davidson diagonalization with overlap
     c_bands:  1 eigenvalues not converged
     ethr =  9.10E-06,  avg # of iterations =  8.9

     negative rho (up, down):  1.288E-04 0.000E+00

     total cpu time spent up to now is      147.9 secs

     total energy              =     -36.88345970 Ry
     estimated scf accuracy    <       0.00040437 Ry

     iteration #  5     ecut=   100.00 Ry     beta= 0.50
     Davidson diagonalization with overlap
     ethr =  5.05E-06,  avg # of iterations =  3.4

     negative rho (up, down):  1.295E-04 0.000E+00

     total cpu time spent up to now is      172.6 secs

     total energy              =     -36.88353567 Ry
     estimated scf accuracy    <       0.00000258 Ry

     iteration #  6     ecut=   100.00 Ry     beta= 0.50
     Davidson diagonalization with overlap
     ethr =  3.23E-08,  avg # of iterations =  2.8

     negative rho (up, down):  1.299E-04 0.000E+00

     total cpu time spent up to now is      197.6 secs

     total energy              =     -36.88353651 Ry
     estimated scf accuracy    <       0.00000009 Ry

     iteration #  7     ecut=   100.00 Ry     beta= 0.50
     Davidson diagonalization with overlap
     ethr =  1.19E-09,  avg # of iterations =  2.5

     negative rho (up, down):  1.299E-04 0.000E+00

     total cpu time spent up to now is      220.4 secs

     total energy              =     -36.88353653 Ry
     estimated scf accuracy    <          3.3E-09 Ry

     iteration #  8     ecut=   100.00 Ry     beta= 0.50
     Davidson diagonalization with overlap
     ethr =  4.07E-11,  avg # of iterations =  2.8

     negative rho (up, down):  1.299E-04 0.000E+00

     total cpu time spent up to now is      247.6 secs

     total energy              =     -36.88353653 Ry
     estimated scf accuracy    <          6.5E-10 Ry

     iteration #  9     ecut=   100.00 Ry     beta= 0.50
     Davidson diagonalization with overlap
     ethr =  8.18E-12,  avg # of iterations =  2.0

     negative rho (up, down):  1.299E-04 0.000E+00

     total cpu time spent up to now is      268.9 secs

     End of self-consistent calculation

          k = 0.0000 0.0000 0.0000 ( 11623 PWs)   bands (ev):

   -22.1408 -10.1613  -5.1488  -5.1488   0.8825   1.5566   1.6845   2.6945

          k = 0.0000 0.0642 0.0000 ( 11571 PWs)   bands (ev):

   -22.0654 -10.0697  -5.4535  -5.3156   0.9858   1.6615   1.7900   2.7991

          k = 0.0000 0.1283 0.0000 ( 11569 PWs)   bands (ev):

   -21.8393  -9.7960  -6.2922  -5.7579   1.2956   1.9761   2.1064   3.1131

          k = 0.0000 0.1925 0.0000 ( 11561 PWs)   bands (ev):

   -21.4636  -9.3434  -7.5001  -6.3514   1.8120   2.4998   2.6339   3.6346

          k = 0.0000 0.2566 0.0000 ( 11519 PWs)   bands (ev):

   -20.9402  -8.9173  -8.7182  -6.9807   2.5342   3.2304   3.3723   4.3608

          k = 0.0000 0.3208 0.0000 ( 11513 PWs)   bands (ev):

   -20.2720 -10.4260  -7.9324  -7.5657   3.4606   4.1337   4.3215   4.7168

          k = 0.0000 0.3849 0.0000 ( 11504 PWs)   bands (ev):

   -19.4634 -11.9461  -8.0565  -7.0093   3.0296   4.5869   5.3428   5.4796

          k = 0.0000 0.4491 0.0000 ( 11518 PWs)   bands (ev):

   -18.5226 -13.4225  -8.4236  -6.0021   1.4607   5.8292   6.1080   6.6916

          k = 0.0000 0.5132 0.0000 ( 11518 PWs)   bands (ev):

   -17.4721 -14.8042  -8.6497  -5.0596   0.1601   5.8976   7.4662   8.2405

          k = 0.0000-0.5774 0.0000 ( 11544 PWs)   bands (ev):

   -16.6204 -15.7679  -8.7259  -4.6053  -0.4167   5.8673   9.0980   9.2365

          k = 0.0556 0.0962 0.0000 ( 11565 PWs)   bands (ev):

   -21.9146  -9.8871  -5.9963  -5.6493   1.1923   1.8712   2.0009   3.0082

          k = 0.0556 0.1604 0.0000 ( 11566 PWs)   bands (ev):

   -21.6137  -9.5238  -6.9638  -6.2237   1.6056   2.2904   2.4229   3.4260

          k = 0.0556 0.2245 0.0000 ( 11550 PWs)   bands (ev):

   -21.1642  -8.9846  -8.2331  -6.8791   2.2252   2.9180   3.0560   4.0514

          k = 0.0556 0.2887 0.0000 ( 11526 PWs)   bands (ev):

   -20.5684  -9.6696  -8.2781  -7.5127   3.0500   3.7487   3.8999   4.8640

          k = 0.0556 0.3528 0.0000 ( 11511 PWs)   bands (ev):

   -19.8300 -11.1690  -8.0651  -7.4205   3.7879   4.0778   4.8277   4.9543

          k = 0.0556 0.4170 0.0000 ( 11520 PWs)   bands (ev):

   -18.9550 -12.6592  -8.5016  -6.4459   2.1971   5.3010   6.0627   6.2097

          k = 0.0556 0.4811 0.0000 ( 11527 PWs)   bands (ev):

   -17.9557 -14.0875  -8.8018  -5.4401   0.7397   6.2536   6.7774   7.5116

          k = 0.0556 0.5453 0.0000 ( 11525 PWs)   bands (ev):

   -16.8937 -15.3692  -8.9544  -4.6616  -0.2743   6.2107   8.3655   9.1435

          k = 0.1111 0.1925 0.0000 ( 11551 PWs)   bands (ev):

   -21.2390  -9.0738  -7.8819  -6.9716   2.1223   2.8138   2.9505   3.9477

          k = 0.1111 0.2566 0.0000 ( 11512 PWs)   bands (ev):

   -20.7171  -9.0506  -8.4521  -7.7519   2.8450   3.5445   3.6892   4.6745

          k = 0.1111 0.3208 0.0000 ( 11516 PWs)   bands (ev):

   -20.0512 -10.4095  -8.4212  -7.6705   3.7719   4.3331   4.5443   4.6387

          k = 0.1111 0.3849 0.0000 ( 11526 PWs)   bands (ev):

   -19.2461 -11.8457  -8.9519  -6.7512   2.8475   4.9002   5.6349   5.7986

          k = 0.1111 0.4491 0.0000 ( 11526 PWs)   bands (ev):

   -18.3105 -13.2737  -9.3370  -5.7447   1.3528   6.2216   6.9747   7.1548

          k = 0.1111 0.5132 0.0000 ( 11529 PWs)   bands (ev):

   -17.2684 -14.6257  -9.5706  -4.7931   0.0888   7.1550   7.7725   8.4931

          k = 0.1111 0.5774 0.0000 ( 11532 PWs)   bands (ev):

   -16.4298 -15.5699  -9.6489  -4.3257  -0.4860   7.1341   9.3691   9.5242

          k = 0.1667 0.2887 0.0000 ( 11515 PWs)   bands (ev):

   -20.1251  -9.9836  -8.7260  -7.7543   3.6698   4.3772   4.5334   4.6205

          k = 0.1667 0.3528 0.0000 ( 11518 PWs)   bands (ev):

   -19.3925 -11.1313  -9.5221  -6.9065   3.2527   4.6973   5.4128   5.5883

          k = 0.1667 0.4170 0.0000 ( 11511 PWs)   bands (ev):

   -18.5261 -12.4392 -10.0683  -5.9391   1.8463   5.9232   6.6413   6.8535

          k = 0.1667 0.4811 0.0000 ( 11527 PWs)   bands (ev):

   -17.5403 -13.7726 -10.4125  -4.9273   0.5145   7.3374   8.0294   8.3238

          k = 0.1667 0.5453 0.0000 ( 11542 PWs)   bands (ev):

   -16.5005 -14.9991 -10.5808  -4.1148  -0.4670   8.4788   8.9515   9.3708

          k = 0.2222 0.3849 0.0000 ( 11499 PWs)   bands (ev):

   -18.5983 -11.9346 -10.5500  -6.0057   2.0414   5.8220   6.5260   6.7485

          k = 0.2222 0.4491 0.0000 ( 11532 PWs)   bands (ev):

   -17.6797 -12.9756 -11.2300  -5.0078   0.8061   7.1382   7.7767   8.1182

          k = 0.2222 0.5132 0.0000 ( 11530 PWs)   bands (ev):

   -16.6643 -14.1543 -11.5702  -4.0238  -0.3295   8.6257   8.8547   9.6939

          k = 0.2222 0.5774 0.0000 ( 11556 PWs)   bands (ev):

   -15.8588 -15.0273 -11.6739  -3.4920  -0.9139   9.1520   9.9822  10.1387

          k = 0.2778 0.4811 0.0000 ( 11519 PWs)   bands (ev):

   -16.7261 -13.5954 -12.1781  -4.0022  -0.2537   8.5263   8.6485   9.5907

          k = 0.2778 0.5453 0.0000 ( 11537 PWs)   bands (ev):

   -15.7329 -14.4594 -12.6271  -3.0742  -1.2035   8.7415  10.0227  11.2451

          k = 0.3333 0.5774 0.0000 ( 11535 PWs)   bands (ev):

   -14.9110 -14.9110 -13.1460  -2.1222  -2.1222   8.5820  11.1428  11.1428

     highest occupied, lowest unoccupied level (ev):    -2.1222   -2.1222

!    total energy              =     -36.88353653 Ry

     total all-electron energy =      -152.411731 Ry
     estimated scf accuracy    <          2.4E-12 Ry

     The total energy is the sum of the following terms:
     one-electron contribution =    -233.10101035 Ry
     hartree contribution      =     118.04340649 Ry
     xc contribution           =      -9.36578829 Ry
     ewald contribution        =      99.87807757 Ry
     one-center paw contrib.   =     -12.33822194 Ry

     convergence has been achieved in   9 iterations

     Writing output data file ./tmp/graphene1.save/

     init_run     :      8.03s CPU     14.64s WALL (       1 calls)
     electrons    :    216.14s CPU    253.99s WALL (       1 calls)

     Called by init_run:
     wfcinit      :      6.68s CPU     12.01s WALL (       1 calls)
     potinit      :      0.55s CPU      1.13s WALL (       1 calls)
     hinit0       :      0.60s CPU      1.02s WALL (       1 calls)

     Called by electrons:
     c_bands      :    184.16s CPU    217.45s WALL (       9 calls)
     sum_band     :     27.39s CPU     31.24s WALL (       9 calls)
     v_of_rho     :      2.20s CPU      2.77s WALL (      10 calls)
     newd         :      1.12s CPU      1.52s WALL (      10 calls)
     PAW_pot      :      1.11s CPU      1.38s WALL (      10 calls)
     mix_rho      :      0.43s CPU      0.47s WALL (       9 calls)

     Called by c_bands:
     init_us_2    :      2.00s CPU      2.39s WALL (     703 calls)
     cegterg      :    180.02s CPU    212.56s WALL (     333 calls)

     Called by *egterg:
     cdiaghg      :      0.48s CPU      0.58s WALL (    1816 calls)
     h_psi        :    146.74s CPU    176.90s WALL (    1853 calls)
     s_psi        :      6.48s CPU      7.77s WALL (    1853 calls)
     g_psi        :      0.57s CPU      0.70s WALL (    1483 calls)

     Called by h_psi:
     h_psi:calbec :      7.88s CPU      9.43s WALL (    1853 calls)
     vloc_psi     :    131.74s CPU    158.94s WALL (    1853 calls)
     add_vuspsi   :      6.51s CPU      7.80s WALL (    1853 calls)

     General routines
     calbec       :     10.32s CPU     12.17s WALL (    2186 calls)
     fft          :      1.48s CPU      1.85s WALL (     110 calls)
     ffts         :      0.14s CPU      0.18s WALL (       9 calls)
     fftw         :    130.02s CPU    156.45s WALL (   19554 calls)

     Parallel routines
     fft_scatt_xy :     25.41s CPU     30.34s WALL (   19673 calls)
     fft_scatt_yz :     30.97s CPU     39.01s WALL (   19673 calls)

     PWSCF        :   3m44.49s CPU   4m31.98s WALL


   This run was terminated on:  10:37:15   1Sep2023            

=------------------------------------------------------------------------------=
   JOB DONE.
=------------------------------------------------------------------------------=
