
     Program BANDS v.6.7MaX starts on  5Aug2023 at 11:46:12 

     This program is part of the open-source Quantum ESPRESSO suite
     for quantum simulation of materials; please cite
         "P. Giannozzi et al., J. Phys.:Condens. Matter 21 395502 (2009);
         "P. Giannozzi et al., J. Phys.:Condens. Matter 29 465901 (2017);
          URL http://www.quantum-espresso.org", 
     in publications or presentations arising from this work. More details at
     http://www.quantum-espresso.org/quote

     Parallel version (MPI), running on     1 processors

     MPI processes distributed on     1 nodes

     Reading xml data from directory:

     ./tmp/graphene1.save/
     file C.pbe-n-kjpaw_psl.1.0.0.UPF: wavefunction(s)  2S 2P renormalized

     IMPORTANT: XC functional enforced from input :
     Exchange-correlation= PBE
                           (   1   4   3   4   0   0   0)
     Any further DFT definition will be discarded
     Please, verify this is what you really want


     G-vector sticks info
     --------------------
     sticks:   dense  smooth     PW     G-vecs:    dense   smooth      PW
     Sum         625     625    187                99769    99769   16097


     Check: negative core charge=   -0.000002

     negative rho (up, down):  1.259E-04 0.000E+00
     Reading collected, re-writing distributed wavefunctions
     high-symmetry point:  0.0000 0.0000 0.0000   x coordinate   0.0000
     high-symmetry point:  0.3333 0.5773 0.0000   x coordinate   0.6667
     high-symmetry point:  0.5000 0.2887 0.0000   x coordinate   1.0000
     high-symmetry point:  0.0000 0.0000 0.0000   x coordinate   1.5773

     Plottable bands (eV) written to file graphene.bands.gnu
     Bands written to file graphene.bands

 **************************************************************************

                    xk=(   0.00000,   0.00000,   0.00000  )

     point group D_6h(6/mmm)
     there are 12 classes
     the character table:

       E     2C6   2C3   C2    3C2'  3C2'' i     2S3   2S6   s_h   3s_d  3s_v 
A_1g   1.00  1.00  1.00  1.00  1.00  1.00  1.00  1.00  1.00  1.00  1.00  1.00
A_2g   1.00  1.00  1.00  1.00 -1.00 -1.00  1.00  1.00  1.00  1.00 -1.00 -1.00
B_1g   1.00 -1.00  1.00 -1.00  1.00 -1.00  1.00 -1.00  1.00 -1.00  1.00 -1.00
B_2g   1.00 -1.00  1.00 -1.00 -1.00  1.00  1.00 -1.00  1.00 -1.00 -1.00  1.00
E_1g   2.00  1.00 -1.00 -2.00  0.00  0.00  2.00  1.00 -1.00 -2.00  0.00  0.00
E_2g   2.00 -1.00 -1.00  2.00  0.00  0.00  2.00 -1.00 -1.00  2.00  0.00  0.00
A_1u   1.00  1.00  1.00  1.00  1.00  1.00 -1.00 -1.00 -1.00 -1.00 -1.00 -1.00
A_2u   1.00  1.00  1.00  1.00 -1.00 -1.00 -1.00 -1.00 -1.00 -1.00  1.00  1.00
B_1u   1.00 -1.00  1.00 -1.00  1.00 -1.00 -1.00  1.00 -1.00  1.00 -1.00  1.00
B_2u   1.00 -1.00  1.00 -1.00 -1.00  1.00 -1.00  1.00 -1.00  1.00  1.00 -1.00
E_1u   2.00  1.00 -1.00 -2.00  0.00  0.00 -2.00 -1.00  1.00  2.00  0.00  0.00
E_2u   2.00 -1.00 -1.00  2.00  0.00  0.00 -2.00  1.00  1.00 -2.00  0.00  0.00

     the symmetry operations in each class and the name of the first element:

     E        1
                                                                 
     2C6      5    6
                                                                 
     2C3      7    8
                                                                 
     C2       2
                                                                 
     3C2'     4   12   11
                                                                 
     3C2''    3    9   10
                                                                 
     i       13
                                                                 
     2S3     17   18
                                                                 
     2S6     19   20
                                                                 
     s_h     14
                                                                 
     3s_d    16   24   23
                                                                 
     3s_v    15   21   22
                                                                 

     Band symmetry, D_6h(6/mmm) point group:

     e(  1 -  1) =    -21.61459  eV     1   --> A_1g           
     e(  2 -  2) =     -9.78989  eV     1   --> A_2u           
     e(  3 -  4) =     -5.63707  eV     2   --> E_2g           
     e(  5 -  5) =      0.81262  eV     1   --> A_1g           
     e(  6 -  6) =      1.46983  eV     1   --> A_2u           
     e(  7 -  7) =      1.59973  eV     1   --> A_1g           
     e(  8 -  8) =      2.61151  eV     1   --> A_2u           

 **************************************************************************

 **************************************************************************

                    xk=(   0.00667,   0.01155,   0.00000  )

     point group C_2v (mm2) 
     there are  4 classes
     the character table:

       E     C2    s_v   s_v' 
A_1    1.00  1.00  1.00  1.00
A_2    1.00  1.00 -1.00 -1.00
B_1    1.00 -1.00  1.00 -1.00
B_2    1.00 -1.00 -1.00  1.00

     the symmetry operations in each class and the name of the first element:

     E        1
                                                                 
     C2       2
                                                                 
     s_v      3
                                                                 
     s_v'     4
                                                                 

     Band symmetry, C_2v (mm2)  point group:

     e(  1 -  1) =    -21.61156  eV     1   --> A_1  D_1  S_1  
     e(  2 -  2) =     -9.78630  eV     1   --> B_2  D_4  S_4  
     e(  3 -  3) =     -5.64998  eV     1   --> B_1  D_3  S_3  
     e(  4 -  4) =     -5.64361  eV     1   --> A_1  D_1  S_1  
     e(  5 -  5) =      0.81675  eV     1   --> A_1  D_1  S_1  
     e(  6 -  6) =      1.47400  eV     1   --> B_2  D_4  S_4  
     e(  7 -  7) =      1.60393  eV     1   --> A_1  D_1  S_1  
     e(  8 -  8) =      2.61567  eV     1   --> B_2  D_4  S_4  

 **************************************************************************

 **************************************************************************

                    xk=(   0.01333,   0.02309,   0.00000  )

     Band symmetry, C_2v (mm2)  point group:

     e(  1 -  1) =    -21.60244  eV     1   --> A_1  D_1  S_1  
     e(  2 -  2) =     -9.77553  eV     1   --> B_2  D_4  S_4  
     e(  3 -  3) =     -5.68845  eV     1   --> B_1  D_3  S_3  
     e(  4 -  4) =     -5.66319  eV     1   --> A_1  D_1  S_1  
     e(  5 -  5) =      0.82912  eV     1   --> A_1  D_1  S_1  
     e(  6 -  6) =      1.48653  eV     1   --> B_2  D_4  S_4  
     e(  7 -  7) =      1.61655  eV     1   --> A_1  D_1  S_1  
     e(  8 -  8) =      2.62815  eV     1   --> B_2  D_4  S_4  

 **************************************************************************

 **************************************************************************

                    xk=(   0.02000,   0.03464,   0.00000  )

     Band symmetry, C_2v (mm2)  point group:

     e(  1 -  1) =    -21.58725  eV     1   --> A_1  D_1  S_1  
     e(  2 -  2) =     -9.75759  eV     1   --> B_2  D_4  S_4  
     e(  3 -  3) =     -5.75175  eV     1   --> B_1  D_3  S_3  
     e(  4 -  4) =     -5.69570  eV     1   --> A_1  D_1  S_1  
     e(  5 -  5) =      0.84974  eV     1   --> A_1  D_1  S_1  
     e(  6 -  6) =      1.50741  eV     1   --> B_2  D_4  S_4  
     e(  7 -  7) =      1.63758  eV     1   --> A_1  D_1  S_1  
     e(  8 -  8) =      2.64895  eV     1   --> B_2  D_4  S_4  

 **************************************************************************

 **************************************************************************

                    xk=(   0.02667,   0.04619,   0.00000  )

     Band symmetry, C_2v (mm2)  point group:

     e(  1 -  1) =    -21.56600  eV     1   --> A_1  D_1  S_1  
     e(  2 -  2) =     -9.73249  eV     1   --> B_2  D_4  S_4  
     e(  3 -  3) =     -5.83876  eV     1   --> B_1  D_3  S_3  
     e(  4 -  4) =     -5.74097  eV     1   --> A_1  D_1  S_1  
     e(  5 -  5) =      0.87861  eV     1   --> A_1  D_1  S_1  
     e(  6 -  6) =      1.53664  eV     1   --> B_2  D_4  S_4  
     e(  7 -  7) =      1.66701  eV     1   --> A_1  D_1  S_1  
     e(  8 -  8) =      2.67807  eV     1   --> B_2  D_4  S_4  

 **************************************************************************

 **************************************************************************

                    xk=(   0.03333,   0.05773,   0.00000  )

     Band symmetry, C_2v (mm2)  point group:

     e(  1 -  1) =    -21.53867  eV     1   --> A_1  D_1  S_1  
     e(  2 -  2) =     -9.70024  eV     1   --> B_2  D_4  S_4  
     e(  3 -  3) =     -5.94797  eV     1   --> B_1  D_3  S_3  
     e(  4 -  4) =     -5.79876  eV     1   --> A_1  D_1  S_1  
     e(  5 -  5) =      0.91572  eV     1   --> A_1  D_1  S_1  
     e(  6 -  6) =      1.57421  eV     1   --> B_2  D_4  S_4  
     e(  7 -  7) =      1.70486  eV     1   --> A_1  D_1  S_1  
     e(  8 -  8) =      2.71551  eV     1   --> B_2  D_4  S_4  

 **************************************************************************

 **************************************************************************

                    xk=(   0.04000,   0.06928,   0.00000  )

     Band symmetry, C_2v (mm2)  point group:

     e(  1 -  1) =    -21.50529  eV     1   --> A_1  D_1  S_1  
     e(  2 -  2) =     -9.66086  eV     1   --> B_2  D_4  S_4  
     e(  3 -  3) =     -6.07767  eV     1   --> B_1  D_3  S_3  
     e(  4 -  4) =     -5.86877  eV     1   --> A_1  D_1  S_1  
     e(  5 -  5) =      0.96109  eV     1   --> A_1  D_1  S_1  
     e(  6 -  6) =      1.62013  eV     1   --> B_2  D_4  S_4  
     e(  7 -  7) =      1.75112  eV     1   --> A_1  D_1  S_1  
     e(  8 -  8) =      2.76126  eV     1   --> B_2  D_4  S_4  

 **************************************************************************

 **************************************************************************

                    xk=(   0.04667,   0.08083,   0.00000  )

     Band symmetry, C_2v (mm2)  point group:

     e(  1 -  1) =    -21.46585  eV     1   --> A_1  D_1  S_1  
     e(  2 -  2) =     -9.61436  eV     1   --> B_2  D_4  S_4  
     e(  3 -  3) =     -6.22596  eV     1   --> B_1  D_3  S_3  
     e(  4 -  4) =     -5.95063  eV     1   --> A_1  D_1  S_1  
     e(  5 -  5) =      1.01471  eV     1   --> A_1  D_1  S_1  
     e(  6 -  6) =      1.67440  eV     1   --> B_2  D_4  S_4  
     e(  7 -  7) =      1.80579  eV     1   --> A_1  D_1  S_1  
     e(  8 -  8) =      2.81532  eV     1   --> B_2  D_4  S_4  

 **************************************************************************

 **************************************************************************

                    xk=(   0.05333,   0.09238,   0.00000  )

     Band symmetry, C_2v (mm2)  point group:

     e(  1 -  1) =    -21.42037  eV     1   --> A_1  D_1  S_1  
     e(  2 -  2) =     -9.56078  eV     1   --> B_2  D_4  S_4  
     e(  3 -  3) =     -6.39089  eV     1   --> B_1  D_3  S_3  
     e(  4 -  4) =     -6.04391  eV     1   --> A_1  D_1  S_1  
     e(  5 -  5) =      1.07657  eV     1   --> A_1  D_1  S_1  
     e(  6 -  6) =      1.73699  eV     1   --> B_2  D_4  S_4  
     e(  7 -  7) =      1.86888  eV     1   --> A_1  D_1  S_1  
     e(  8 -  8) =      2.87768  eV     1   --> B_2  D_4  S_4  

 **************************************************************************

 **************************************************************************

                    xk=(   0.06000,   0.10392,   0.00000  )

     Band symmetry, C_2v (mm2)  point group:

     e(  1 -  1) =    -21.36885  eV     1   --> A_1  D_1  S_1  
     e(  2 -  2) =     -9.50013  eV     1   --> B_2  D_4  S_4  
     e(  3 -  3) =     -6.57050  eV     1   --> B_1  D_3  S_3  
     e(  4 -  4) =     -6.14816  eV     1   --> A_1  D_1  S_1  
     e(  5 -  5) =      1.14668  eV     1   --> A_1  D_1  S_1  
     e(  6 -  6) =      1.80793  eV     1   --> B_2  D_4  S_4  
     e(  7 -  7) =      1.94038  eV     1   --> A_1  D_1  S_1  
     e(  8 -  8) =      2.94834  eV     1   --> B_2  D_4  S_4  

 **************************************************************************

 **************************************************************************

                    xk=(   0.06667,   0.11547,   0.00000  )

     Band symmetry, C_2v (mm2)  point group:

     e(  1 -  1) =    -21.31131  eV     1   --> A_1  D_1  S_1  
     e(  2 -  2) =     -9.43245  eV     1   --> B_2  D_4  S_4  
     e(  3 -  3) =     -6.76290  eV     1   --> B_1  D_3  S_3  
     e(  4 -  4) =     -6.26284  eV     1   --> A_1  D_1  S_1  
     e(  5 -  5) =      1.22504  eV     1   --> A_1  D_1  S_1  
     e(  6 -  6) =      1.88719  eV     1   --> B_2  D_4  S_4  
     e(  7 -  7) =      2.02029  eV     1   --> A_1  D_1  S_1  
     e(  8 -  8) =      3.02729  eV     1   --> B_2  D_4  S_4  

 **************************************************************************

 **************************************************************************

                    xk=(   0.07333,   0.12702,   0.00000  )

     Band symmetry, C_2v (mm2)  point group:

     e(  1 -  1) =    -21.24776  eV     1   --> A_1  D_1  S_1  
     e(  2 -  2) =     -9.35778  eV     1   --> B_2  D_4  S_4  
     e(  3 -  3) =     -6.96630  eV     1   --> B_1  D_3  S_3  
     e(  4 -  4) =     -6.38743  eV     1   --> A_1  D_1  S_1  
     e(  5 -  5) =      1.31164  eV     1   --> A_1  D_1  S_1  
     e(  6 -  6) =      1.97477  eV     1   --> B_2  D_4  S_4  
     e(  7 -  7) =      2.10861  eV     1   --> A_1  D_1  S_1  
     e(  8 -  8) =      3.11453  eV     1   --> B_2  D_4  S_4  

 **************************************************************************

 **************************************************************************

                    xk=(   0.08000,   0.13856,   0.00000  )

     Band symmetry, C_2v (mm2)  point group:

     e(  1 -  1) =    -21.17822  eV     1   --> A_1  D_1  S_1  
     e(  2 -  2) =     -9.27616  eV     1   --> B_2  D_4  S_4  
     e(  3 -  3) =     -7.17904  eV     1   --> B_1  D_3  S_3  
     e(  4 -  4) =     -6.52131  eV     1   --> A_1  D_1  S_1  
     e(  5 -  5) =      1.40649  eV     1   --> A_1  D_1  S_1  
     e(  6 -  6) =      2.07066  eV     1   --> B_2  D_4  S_4  
     e(  7 -  7) =      2.20535  eV     1   --> A_1  D_1  S_1  
     e(  8 -  8) =      3.21004  eV     1   --> B_2  D_4  S_4  

 **************************************************************************

 **************************************************************************

                    xk=(   0.08667,   0.15011,   0.00000  )

     Band symmetry, C_2v (mm2)  point group:

     e(  1 -  1) =    -21.10270  eV     1   --> A_1  D_1  S_1  
     e(  2 -  2) =     -9.18764  eV     1   --> B_2  D_4  S_4  
     e(  3 -  3) =     -7.39956  eV     1   --> B_1  D_3  S_3  
     e(  4 -  4) =     -6.66390  eV     1   --> A_1  D_1  S_1  
     e(  5 -  5) =      1.50957  eV     1   --> A_1  D_1  S_1  
     e(  6 -  6) =      2.17486  eV     1   --> B_2  D_4  S_4  
     e(  7 -  7) =      2.31049  eV     1   --> A_1  D_1  S_1  
     e(  8 -  8) =      3.31381  eV     1   --> B_2  D_4  S_4  

 **************************************************************************

 **************************************************************************

                    xk=(   0.09333,   0.16166,   0.00000  )

     Band symmetry, C_2v (mm2)  point group:

     e(  1 -  1) =    -21.02122  eV     1   --> A_1  D_1  S_1  
     e(  2 -  2) =     -9.09227  eV     1   --> B_2  D_4  S_4  
     e(  3 -  3) =     -7.62649  eV     1   --> B_1  D_3  S_3  
     e(  4 -  4) =     -6.81455  eV     1   --> A_1  D_1  S_1  
     e(  5 -  5) =      1.62088  eV     1   --> A_1  D_1  S_1  
     e(  6 -  6) =      2.28735  eV     1   --> B_2  D_4  S_4  
     e(  7 -  7) =      2.42406  eV     1   --> A_1  D_1  S_1  
     e(  8 -  8) =      3.42583  eV     1   --> B_2  D_4  S_4  

 **************************************************************************

 **************************************************************************

                    xk=(   0.10000,   0.17320,   0.00000  )

     Band symmetry, C_2v (mm2)  point group:

     e(  1 -  1) =    -20.93380  eV     1   --> A_1  D_1  S_1  
     e(  2 -  2) =     -8.99011  eV     1   --> B_2  D_4  S_4  
     e(  3 -  3) =     -7.85856  eV     1   --> B_1  D_3  S_3  
     e(  4 -  4) =     -6.97263  eV     1   --> A_1  D_1  S_1  
     e(  5 -  5) =      1.74043  eV     1   --> A_1  D_1  S_1  
     e(  6 -  6) =      2.40812  eV     1   --> B_2  D_4  S_4  
     e(  7 -  7) =      2.54603  eV     1   --> A_1  D_1  S_1  
     e(  8 -  8) =      3.54608  eV     1   --> B_2  D_4  S_4  

 **************************************************************************

 **************************************************************************

                    xk=(   0.10667,   0.18475,   0.00000  )

     Band symmetry, C_2v (mm2)  point group:

     e(  1 -  1) =    -20.84047  eV     1   --> A_1  D_1  S_1  
     e(  2 -  2) =     -8.88122  eV     1   --> B_2  D_4  S_4  
     e(  3 -  3) =     -8.09463  eV     1   --> B_1  D_3  S_3  
     e(  4 -  4) =     -7.13750  eV     1   --> A_1  D_1  S_1  
     e(  5 -  5) =      1.86819  eV     1   --> A_1  D_1  S_1  
     e(  6 -  6) =      2.53715  eV     1   --> B_2  D_4  S_4  
     e(  7 -  7) =      2.67642  eV     1   --> A_1  D_1  S_1  
     e(  8 -  8) =      3.67455  eV     1   --> B_2  D_4  S_4  

 **************************************************************************

 **************************************************************************

                    xk=(   0.11333,   0.19630,   0.00000  )

     Band symmetry, C_2v (mm2)  point group:

     e(  1 -  1) =    -20.74125  eV     1   --> A_1  D_1  S_1  
     e(  2 -  2) =     -8.76568  eV     1   --> B_2  D_4  S_4  
     e(  3 -  3) =     -8.33371  eV     1   --> B_1  D_3  S_3  
     e(  4 -  4) =     -7.30850  eV     1   --> A_1  D_1  S_1  
     e(  5 -  5) =      2.00417  eV     1   --> A_1  D_1  S_1  
     e(  6 -  6) =      2.67444  eV     1   --> B_2  D_4  S_4  
     e(  7 -  7) =      2.81522  eV     1   --> A_1  D_1  S_1  
     e(  8 -  8) =      3.81122  eV     1   --> B_2  D_4  S_4  

 **************************************************************************

 **************************************************************************

                    xk=(   0.12000,   0.20784,   0.00000  )

     Band symmetry, C_2v (mm2)  point group:

     e(  1 -  1) =    -20.63616  eV     1   --> A_1  D_1  S_1  
     e(  2 -  2) =     -8.64356  eV     1   --> B_2  D_4  S_4  
     e(  3 -  3) =     -8.57490  eV     1   --> B_1  D_3  S_3  
     e(  4 -  4) =     -7.48500  eV     1   --> A_1  D_1  S_1  
     e(  5 -  5) =      2.14834  eV     1   --> A_1  D_1  S_1  
     e(  6 -  6) =      2.81996  eV     1   --> B_2  D_4  S_4  
     e(  7 -  7) =      2.96243  eV     1   --> A_1  D_1  S_1  
     e(  8 -  8) =      3.95606  eV     1   --> B_2  D_4  S_4  

 **************************************************************************

 **************************************************************************

                    xk=(   0.12667,   0.21939,   0.00000  )

     Band symmetry, C_2v (mm2)  point group:

     e(  1 -  1) =    -20.52525  eV     1   --> A_1  D_1  S_1  
     e(  2 -  2) =     -8.81739  eV     1   --> B_1  D_3  S_3  
     e(  3 -  3) =     -8.51495  eV     1   --> B_2  D_4  S_4  
     e(  4 -  4) =     -7.66636  eV     1   --> A_1  D_1  S_1  
     e(  5 -  5) =      2.30071  eV     1   --> A_1  D_1  S_1  
     e(  6 -  6) =      2.97369  eV     1   --> B_2  D_4  S_4  
     e(  7 -  7) =      3.11805  eV     1   --> A_1  D_1  S_1  
     e(  8 -  8) =      4.10905  eV     1   --> B_2  D_4  S_4  

 **************************************************************************

 **************************************************************************

                    xk=(   0.13333,   0.23094,   0.00000  )

     Band symmetry, C_2v (mm2)  point group:

     e(  1 -  1) =    -20.40855  eV     1   --> A_1  D_1  S_1  
     e(  2 -  2) =     -9.06048  eV     1   --> B_1  D_3  S_3  
     e(  3 -  3) =     -8.37995  eV     1   --> B_2  D_4  S_4  
     e(  4 -  4) =     -7.85196  eV     1   --> A_1  D_1  S_1  
     e(  5 -  5) =      2.46125  eV     1   --> A_1  D_1  S_1  
     e(  6 -  6) =      3.13559  eV     1   --> B_2  D_4  S_4  
     e(  7 -  7) =      3.28208  eV     1   --> A_1  D_1  S_1  
     e(  8 -  8) =      4.27014  eV     1   --> B_2  D_4  S_4  

 **************************************************************************

 **************************************************************************

                    xk=(   0.14000,   0.24248,   0.00000  )

     Band symmetry, C_2v (mm2)  point group:

     e(  1 -  1) =    -20.28608  eV     1   --> A_1  D_1  S_1  
     e(  2 -  2) =     -9.30354  eV     1   --> B_1  D_3  S_3  
     e(  3 -  3) =     -8.23865  eV     1   --> B_2  D_4  S_4  
     e(  4 -  4) =     -8.04119  eV     1   --> A_1  D_1  S_1  
     e(  5 -  5) =      2.62996  eV     1   --> A_1  D_1  S_1  
     e(  6 -  6) =      3.30565  eV     1   --> B_2  D_4  S_4  
     e(  7 -  7) =      3.45452  eV     1   --> A_1  D_1  S_1  
     e(  8 -  8) =      4.43931  eV     1   --> B_2  D_4  S_4  

 **************************************************************************

 **************************************************************************

                    xk=(   0.14667,   0.25403,   0.00000  )

     Band symmetry, C_2v (mm2)  point group:

     e(  1 -  1) =    -20.15790  eV     1   --> A_1  D_1  S_1  
     e(  2 -  2) =     -9.54600  eV     1   --> B_1  D_3  S_3  
     e(  3 -  3) =     -8.23348  eV     1   --> A_1  D_1  S_1  
     e(  4 -  4) =     -8.09119  eV     1   --> B_2  D_4  S_4  
     e(  5 -  5) =      2.80681  eV     1   --> A_1  D_1  S_1  
     e(  6 -  6) =      3.48381  eV     1   --> B_2  D_4  S_4  
     e(  7 -  7) =      3.63537  eV     1   --> A_1  D_1  S_1  
     e(  8 -  8) =      4.29431  eV     1   --> A_2  D_2  S_2  

 **************************************************************************

 **************************************************************************

                    xk=(   0.15333,   0.26558,   0.00000  )

     Band symmetry, C_2v (mm2)  point group:

     e(  1 -  1) =    -20.02406  eV     1   --> A_1  D_1  S_1  
     e(  2 -  2) =     -9.78739  eV     1   --> B_1  D_3  S_3  
     e(  3 -  3) =     -8.42823  eV     1   --> A_1  D_1  S_1  
     e(  4 -  4) =     -7.93768  eV     1   --> B_2  D_4  S_4  
     e(  5 -  5) =      2.99178  eV     1   --> A_1  D_1  S_1  
     e(  6 -  6) =      3.67003  eV     1   --> B_2  D_4  S_4  
     e(  7 -  7) =      3.82461  eV     1   --> A_1  D_1  S_1  
     e(  8 -  8) =      4.01754  eV     1   --> A_2  D_2  S_2  

 **************************************************************************

 **************************************************************************

                    xk=(   0.16000,   0.27713,   0.00000  )

     Band symmetry, C_2v (mm2)  point group:

     e(  1 -  1) =    -19.88459  eV     1   --> A_1  D_1  S_1  
     e(  2 -  2) =    -10.02725  eV     1   --> B_1  D_3  S_3  
     e(  3 -  3) =     -8.62492  eV     1   --> A_1  D_1  S_1  
     e(  4 -  4) =     -7.77826  eV     1   --> B_2  D_4  S_4  
     e(  5 -  5) =      3.18485  eV     1   --> A_1  D_1  S_1  
     e(  6 -  6) =      3.73920  eV     1   --> A_2  D_2  S_2  
     e(  7 -  7) =      3.86426  eV     1   --> B_2  D_4  S_4  
     e(  8 -  8) =      4.02226  eV     1   --> A_1  D_1  S_1  

 **************************************************************************

 **************************************************************************

                    xk=(   0.16666,   0.28867,   0.00000  )

     Band symmetry, C_2v (mm2)  point group:

     e(  1 -  1) =    -19.73957  eV     1   --> A_1  D_1  S_1  
     e(  2 -  2) =    -10.26519  eV     1   --> B_1  D_3  S_3  
     e(  3 -  3) =     -8.82300  eV     1   --> A_1  D_1  S_1  
     e(  4 -  4) =     -7.61309  eV     1   --> B_2  D_4  S_4  
     e(  5 -  5) =      3.38599  eV     1   --> A_1  D_1  S_1  
     e(  6 -  6) =      3.45996  eV     1   --> A_2  D_2  S_2  
     e(  7 -  7) =      4.06642  eV     1   --> B_2  D_4  S_4  
     e(  8 -  8) =      4.22830  eV     1   --> A_1  D_1  S_1  

 **************************************************************************

 **************************************************************************

                    xk=(   0.17333,   0.30022,   0.00000  )

     Band symmetry, C_2v (mm2)  point group:

     e(  1 -  1) =    -19.58906  eV     1   --> A_1  D_1  S_1  
     e(  2 -  2) =    -10.50087  eV     1   --> B_1  D_3  S_3  
     e(  3 -  3) =     -9.02198  eV     1   --> A_1  D_1  S_1  
     e(  4 -  4) =     -7.44233  eV     1   --> B_2  D_4  S_4  
     e(  5 -  5) =      3.18047  eV     1   --> A_2  D_2  S_2  
     e(  6 -  6) =      3.59518  eV     1   --> A_1  D_1  S_1  
     e(  7 -  7) =      4.27643  eV     1   --> B_2  D_4  S_4  
     e(  8 -  8) =      4.44274  eV     1   --> A_1  D_1  S_1  

 **************************************************************************

 **************************************************************************

                    xk=(   0.18000,   0.31177,   0.00000  )

     Band symmetry, C_2v (mm2)  point group:

     e(  1 -  1) =    -19.43312  eV     1   --> A_1  D_1  S_1  
     e(  2 -  2) =    -10.73398  eV     1   --> B_1  D_3  S_3  
     e(  3 -  3) =     -9.22136  eV     1   --> A_1  D_1  S_1  
     e(  4 -  4) =     -7.26616  eV     1   --> B_2  D_4  S_4  
     e(  5 -  5) =      2.90131  eV     1   --> A_2  D_2  S_2  
     e(  6 -  6) =      3.81237  eV     1   --> A_1  D_1  S_1  
     e(  7 -  7) =      4.49417  eV     1   --> B_2  D_4  S_4  
     e(  8 -  8) =      4.66558  eV     1   --> A_1  D_1  S_1  

 **************************************************************************

 **************************************************************************

                    xk=(   0.18666,   0.32331,   0.00000  )

     Band symmetry, C_2v (mm2)  point group:

     e(  1 -  1) =    -19.27183  eV     1   --> A_1  D_1  S_1  
     e(  2 -  2) =    -10.96423  eV     1   --> B_1  D_3  S_3  
     e(  3 -  3) =     -9.42066  eV     1   --> A_1  D_1  S_1  
     e(  4 -  4) =     -7.08480  eV     1   --> B_2  D_4  S_4  
     e(  5 -  5) =      2.62302  eV     1   --> A_2  D_2  S_2  
     e(  6 -  6) =      4.03752  eV     1   --> A_1  D_1  S_1  
     e(  7 -  7) =      4.71951  eV     1   --> B_2  D_4  S_4  
     e(  8 -  8) =      4.89679  eV     1   --> A_1  D_1  S_1  

 **************************************************************************

 **************************************************************************

                    xk=(   0.19333,   0.33486,   0.00000  )

     Band symmetry, C_2v (mm2)  point group:

     e(  1 -  1) =    -19.10529  eV     1   --> A_1  D_1  S_1  
     e(  2 -  2) =    -11.19139  eV     1   --> B_1  D_3  S_3  
     e(  3 -  3) =     -9.61945  eV     1   --> A_1  D_1  S_1  
     e(  4 -  4) =     -6.89845  eV     1   --> B_2  D_4  S_4  
     e(  5 -  5) =      2.34611  eV     1   --> A_2  D_2  S_2  
     e(  6 -  6) =      4.27058  eV     1   --> A_1  D_1  S_1  
     e(  7 -  7) =      4.95226  eV     1   --> B_2  D_4  S_4  
     e(  8 -  8) =      5.13639  eV     1   --> A_1  D_1  S_1  

 **************************************************************************

 **************************************************************************

                    xk=(   0.20000,   0.34641,   0.00000  )

     Band symmetry, C_2v (mm2)  point group:

     e(  1 -  1) =    -18.93360  eV     1   --> A_1  D_1  S_1  
     e(  2 -  2) =    -11.41523  eV     1   --> B_1  D_3  S_3  
     e(  3 -  3) =     -9.81728  eV     1   --> A_1  D_1  S_1  
     e(  4 -  4) =     -6.70737  eV     1   --> B_2  D_4  S_4  
     e(  5 -  5) =      2.07105  eV     1   --> A_2  D_2  S_2  
     e(  6 -  6) =      4.51149  eV     1   --> A_1  D_1  S_1  
     e(  7 -  7) =      5.19217  eV     1   --> B_2  D_4  S_4  
     e(  8 -  8) =      5.38436  eV     1   --> A_1  D_1  S_1  

 **************************************************************************

 **************************************************************************

                    xk=(   0.20666,   0.35795,   0.00000  )

     Band symmetry, C_2v (mm2)  point group:

     e(  1 -  1) =    -18.75686  eV     1   --> A_1  D_1  S_1  
     e(  2 -  2) =    -11.63554  eV     1   --> B_1  D_3  S_3  
     e(  3 -  3) =    -10.01372  eV     1   --> A_1  D_1  S_1  
     e(  4 -  4) =     -6.51183  eV     1   --> B_2  D_4  S_4  
     e(  5 -  5) =      1.79826  eV     1   --> A_2  D_2  S_2  
     e(  6 -  6) =      4.76017  eV     1   --> A_1  D_1  S_1  
     e(  7 -  7) =      5.43891  eV     1   --> B_2  D_4  S_4  
     e(  8 -  8) =      5.64069  eV     1   --> A_1  D_1  S_1  

 **************************************************************************

 **************************************************************************

                    xk=(   0.21333,   0.36950,   0.00000  )

     Band symmetry, C_2v (mm2)  point group:

     e(  1 -  1) =    -18.57523  eV     1   --> A_1  D_1  S_1  
     e(  2 -  2) =    -11.85217  eV     1   --> B_1  D_3  S_3  
     e(  3 -  3) =    -10.20837  eV     1   --> A_1  D_1  S_1  
     e(  4 -  4) =     -6.31211  eV     1   --> B_2  D_4  S_4  
     e(  5 -  5) =      1.52815  eV     1   --> A_2  D_2  S_2  
     e(  6 -  6) =      5.01654  eV     1   --> A_1  D_1  S_1  
     e(  7 -  7) =      5.69204  eV     1   --> B_2  D_4  S_4  
     e(  8 -  8) =      5.90538  eV     1   --> A_1  D_1  S_1  

 **************************************************************************

 **************************************************************************

                    xk=(   0.22000,   0.38105,   0.00000  )

     Band symmetry, C_2v (mm2)  point group:

     e(  1 -  1) =    -18.38883  eV     1   --> A_1  D_1  S_1  
     e(  2 -  2) =    -12.06494  eV     1   --> B_1  D_3  S_3  
     e(  3 -  3) =    -10.40081  eV     1   --> A_1  D_1  S_1  
     e(  4 -  4) =     -6.10854  eV     1   --> B_2  D_4  S_4  
     e(  5 -  5) =      1.26109  eV     1   --> A_2  D_2  S_2  
     e(  6 -  6) =      5.28049  eV     1   --> A_1  D_1  S_1  
     e(  7 -  7) =      5.95091  eV     1   --> B_2  D_4  S_4  
     e(  8 -  8) =      6.17842  eV     1   --> A_1  D_1  S_1  

 **************************************************************************

 **************************************************************************

                    xk=(   0.22666,   0.39259,   0.00000  )

     Band symmetry, C_2v (mm2)  point group:

     e(  1 -  1) =    -18.19785  eV     1   --> A_1  D_1  S_1  
     e(  2 -  2) =    -12.27371  eV     1   --> B_1  D_3  S_3  
     e(  3 -  3) =    -10.59064  eV     1   --> A_1  D_1  S_1  
     e(  4 -  4) =     -5.90148  eV     1   --> B_2  D_4  S_4  
     e(  5 -  5) =      0.99742  eV     1   --> A_2  D_2  S_2  
     e(  6 -  6) =      5.55189  eV     1   --> A_1  D_1  S_1  
     e(  7 -  7) =      6.21459  eV     1   --> B_2  D_4  S_4  
     e(  8 -  8) =      6.45977  eV     1   --> A_1  D_1  S_1  

 **************************************************************************

 **************************************************************************

                    xk=(   0.23333,   0.40414,   0.00000  )

     Band symmetry, C_2v (mm2)  point group:

     e(  1 -  1) =    -18.00250  eV     1   --> A_1  D_1  S_1  
     e(  2 -  2) =    -12.47835  eV     1   --> B_1  D_3  S_3  
     e(  3 -  3) =    -10.77745  eV     1   --> A_1  D_1  S_1  
     e(  4 -  4) =     -5.69131  eV     1   --> B_2  D_4  S_4  
     e(  5 -  5) =      0.73745  eV     1   --> A_2  D_2  S_2  
     e(  6 -  6) =      5.83055  eV     1   --> A_1  D_1  S_1  
     e(  7 -  7) =      6.48168  eV     1   --> B_2  D_4  S_4  
     e(  8 -  8) =      6.74943  eV     1   --> A_1  D_1  S_1  

 **************************************************************************

 **************************************************************************

                    xk=(   0.24000,   0.41569,   0.00000  )

     Band symmetry, C_2v (mm2)  point group:

     e(  1 -  1) =    -17.80300  eV     1   --> A_1  D_1  S_1  
     e(  2 -  2) =    -12.67875  eV     1   --> B_1  D_3  S_3  
     e(  3 -  3) =    -10.96081  eV     1   --> A_1  D_1  S_1  
     e(  4 -  4) =     -5.47847  eV     1   --> B_2  D_4  S_4  
     e(  5 -  5) =      0.48146  eV     1   --> A_2  D_2  S_2  
     e(  6 -  6) =      6.11628  eV     1   --> A_1  D_1  S_1  
     e(  7 -  7) =      6.75001  eV     1   --> B_2  D_4  S_4  
     e(  8 -  8) =      7.04737  eV     1   --> A_1  D_1  S_1  

 **************************************************************************

 **************************************************************************

                    xk=(   0.24666,   0.42723,   0.00000  )

     Band symmetry, C_2v (mm2)  point group:

     e(  1 -  1) =    -17.59965  eV     1   --> A_1  D_1  S_1  
     e(  2 -  2) =    -12.87481  eV     1   --> B_1  D_3  S_3  
     e(  3 -  3) =    -11.14029  eV     1   --> A_1  D_1  S_1  
     e(  4 -  4) =     -5.26342  eV     1   --> B_2  D_4  S_4  
     e(  5 -  5) =      0.22974  eV     1   --> A_2  D_2  S_2  
     e(  6 -  6) =      6.40880  eV     1   --> A_1  D_1  S_1  
     e(  7 -  7) =      7.01612  eV     1   --> B_2  D_4  S_4  
     e(  8 -  8) =      7.35355  eV     1   --> A_1  D_1  S_1  

 **************************************************************************

 **************************************************************************

                    xk=(   0.25333,   0.43878,   0.00000  )

     Band symmetry, C_2v (mm2)  point group:

     e(  1 -  1) =    -17.39278  eV     1   --> A_1  D_1  S_1  
     e(  2 -  2) =    -13.06642  eV     1   --> B_1  D_3  S_3  
     e(  3 -  3) =    -11.31540  eV     1   --> A_1  D_1  S_1  
     e(  4 -  4) =     -5.04667  eV     1   --> B_2  D_4  S_4  
     e(  5 -  5) =     -0.01748  eV     1   --> A_2  D_2  S_2  
     e(  6 -  6) =      6.70772  eV     1   --> A_1  D_1  S_1  
     e(  7 -  7) =      7.27441  eV     1   --> B_2  D_4  S_4  
     e(  8 -  8) =      7.66792  eV     1   --> A_1  D_1  S_1  

 **************************************************************************

 **************************************************************************

                    xk=(   0.26000,   0.45033,   0.00000  )

     Band symmetry, C_2v (mm2)  point group:

     e(  1 -  1) =    -17.18280  eV     1   --> A_1  D_1  S_1  
     e(  2 -  2) =    -13.25351  eV     1   --> B_1  D_3  S_3  
     e(  3 -  3) =    -11.48564  eV     1   --> A_1  D_1  S_1  
     e(  4 -  4) =     -4.82879  eV     1   --> B_2  D_4  S_4  
     e(  5 -  5) =     -0.25996  eV     1   --> A_2  D_2  S_2  
     e(  6 -  6) =      7.01258  eV     1   --> A_1  D_1  S_1  
     e(  7 -  7) =      7.51586  eV     1   --> B_2  D_4  S_4  
     e(  8 -  8) =      7.99040  eV     1   --> A_1  D_1  S_1  

 **************************************************************************

 **************************************************************************

                    xk=(   0.26666,   0.46188,   0.00000  )

     Band symmetry, C_2v (mm2)  point group:

     e(  1 -  1) =    -16.97023  eV     1   --> A_1  D_1  S_1  
     e(  2 -  2) =    -13.43599  eV     1   --> B_1  D_3  S_3  
     e(  3 -  3) =    -11.65039  eV     1   --> A_1  D_1  S_1  
     e(  4 -  4) =     -4.61038  eV     1   --> B_2  D_4  S_4  
     e(  5 -  5) =     -0.49749  eV     1   --> A_2  D_2  S_2  
     e(  6 -  6) =      7.32268  eV     1   --> A_1  D_1  S_1  
     e(  7 -  7) =      7.72713  eV     1   --> B_2  D_4  S_4  
     e(  8 -  8) =      8.32089  eV     1   --> A_1  D_1  S_1  

 **************************************************************************

 **************************************************************************

                    xk=(   0.27333,   0.47342,   0.00000  )

     Band symmetry, C_2v (mm2)  point group:

     e(  1 -  1) =    -16.75569  eV     1   --> A_1  D_1  S_1  
     e(  2 -  2) =    -13.61381  eV     1   --> B_1  D_3  S_3  
     e(  3 -  3) =    -11.80897  eV     1   --> A_1  D_1  S_1  
     e(  4 -  4) =     -4.39210  eV     1   --> B_2  D_4  S_4  
     e(  5 -  5) =     -0.72989  eV     1   --> A_2  D_2  S_2  
     e(  6 -  6) =      7.63708  eV     1   --> A_1  D_1  S_1  
     e(  7 -  7) =      7.89252  eV     1   --> B_2  D_4  S_4  
     e(  8 -  8) =      8.65919  eV     1   --> A_1  D_1  S_1  

 **************************************************************************

 **************************************************************************

                    xk=(   0.28000,   0.48497,   0.00000  )

     Band symmetry, C_2v (mm2)  point group:

     e(  1 -  1) =    -16.53999  eV     1   --> A_1  D_1  S_1  
     e(  2 -  2) =    -13.78689  eV     1   --> B_1  D_3  S_3  
     e(  3 -  3) =    -11.96055  eV     1   --> A_1  D_1  S_1  
     e(  4 -  4) =     -4.17465  eV     1   --> B_2  D_4  S_4  
     e(  5 -  5) =     -0.95696  eV     1   --> A_2  D_2  S_2  
     e(  6 -  6) =      7.95440  eV     1   --> A_1  D_1  S_1  
     e(  7 -  7) =      8.00156  eV     1   --> B_2  D_4  S_4  
     e(  8 -  8) =      9.00497  eV     1   --> A_1  D_1  S_1  

 **************************************************************************

 **************************************************************************

                    xk=(   0.28666,   0.49652,   0.00000  )

     Band symmetry, C_2v (mm2)  point group:

     e(  1 -  1) =    -16.32416  eV     1   --> A_1  D_1  S_1  
     e(  2 -  2) =    -13.95517  eV     1   --> B_1  D_3  S_3  
     e(  3 -  3) =    -12.10408  eV     1   --> A_1  D_1  S_1  
     e(  4 -  4) =     -3.95880  eV     1   --> B_2  D_4  S_4  
     e(  5 -  5) =     -1.17854  eV     1   --> A_2  D_2  S_2  
     e(  6 -  6) =      8.05672  eV     1   --> B_2  D_4  S_4  
     e(  7 -  7) =      8.27255  eV     1   --> A_1  D_1  S_1  
     e(  8 -  8) =      9.35748  eV     1   --> A_1  D_1  S_1  

 **************************************************************************

 **************************************************************************

                    xk=(   0.29333,   0.50806,   0.00000  )

     Band symmetry, C_2v (mm2)  point group:

     e(  1 -  1) =    -16.10953  eV     1   --> A_1  D_1  S_1  
     e(  2 -  2) =    -14.11862  eV     1   --> B_1  D_3  S_3  
     e(  3 -  3) =    -12.23824  eV     1   --> A_1  D_1  S_1  
     e(  4 -  4) =     -3.74535  eV     1   --> B_2  D_4  S_4  
     e(  5 -  5) =     -1.39449  eV     1   --> A_2  D_2  S_2  
     e(  6 -  6) =      8.07119  eV     1   --> B_2  D_4  S_4  
     e(  7 -  7) =      8.58834  eV     1   --> A_1  D_1  S_1  
     e(  8 -  8) =      9.71790  eV     1   -->   ?

 **************************************************************************

 **************************************************************************

                    xk=(   0.30000,   0.51961,   0.00000  )

     Band symmetry, C_2v (mm2)  point group:

     e(  1 -  1) =    -15.89786  eV     1   --> A_1  D_1  S_1  
     e(  2 -  2) =    -14.27718  eV     1   --> B_1  D_3  S_3  
     e(  3 -  3) =    -12.36132  eV     1   --> A_1  D_1  S_1  
     e(  4 -  4) =     -3.53516  eV     1   --> B_2  D_4  S_4  
     e(  5 -  5) =     -1.60464  eV     1   --> A_2  D_2  S_2  
     e(  6 -  6) =      8.06049  eV     1   --> B_2  D_4  S_4  
     e(  7 -  7) =      8.89659  eV     1   --> A_1  D_1  S_1  
     e(  8 -  8) =      9.78343  eV     1   --> B_1  D_3  S_3  

 **************************************************************************

 **************************************************************************

                    xk=(   0.30666,   0.53116,   0.00000  )

     Band symmetry, C_2v (mm2)  point group:

     e(  1 -  1) =    -15.69149  eV     1   --> A_1  D_1  S_1  
     e(  2 -  2) =    -14.43080  eV     1   --> B_1  D_3  S_3  
     e(  3 -  3) =    -12.47106  eV     1   --> A_1  D_1  S_1  
     e(  4 -  4) =     -3.32911  eV     1   --> B_2  D_4  S_4  
     e(  5 -  5) =     -1.80888  eV     1   --> A_2  D_2  S_2  
     e(  6 -  6) =      8.03733  eV     1   --> B_2  D_4  S_4  
     e(  7 -  7) =      9.18883  eV     1   --> A_1  D_1  S_1  
     e(  8 -  8) =      9.82867  eV     1   --> B_1  D_3  S_3  

 **************************************************************************

 **************************************************************************

                    xk=(   0.31333,   0.54270,   0.00000  )

     Band symmetry, C_2v (mm2)  point group:

     e(  1 -  1) =    -15.49353  eV     1   --> A_1  D_1  S_1  
     e(  2 -  2) =    -14.57946  eV     1   --> B_1  D_3  S_3  
     e(  3 -  3) =    -12.56445  eV     1   --> A_1  D_1  S_1  
     e(  4 -  4) =     -3.12811  eV     1   --> B_2  D_4  S_4  
     e(  5 -  5) =     -2.00708  eV     1   --> A_2  D_2  S_2  
     e(  6 -  6) =      8.01084  eV     1   --> B_2  D_4  S_4  
     e(  7 -  7) =      9.45130  eV     1   --> A_1  D_1  S_1  
     e(  8 -  8) =      9.86142  eV     1   --> B_1  D_3  S_3  

 **************************************************************************

 **************************************************************************

                    xk=(   0.32000,   0.55425,   0.00000  )

     Band symmetry, C_2v (mm2)  point group:

     e(  1 -  1) =    -15.30803  eV     1   --> A_1  D_1  S_1  
     e(  2 -  2) =    -14.72311  eV     1   --> B_1  D_3  S_3  
     e(  3 -  3) =    -12.63758  eV     1   --> A_1  D_1  S_1  
     e(  4 -  4) =     -2.93307  eV     1   --> B_2  D_4  S_4  
     e(  5 -  5) =     -2.19913  eV     1   --> A_2  D_2  S_2  
     e(  6 -  6) =      7.98733  eV     1   --> B_2  D_4  S_4  
     e(  7 -  7) =      9.66394  eV     1   --> A_1  D_1  S_1  
     e(  8 -  8) =      9.87973  eV     1   --> B_1  D_3  S_3  

 **************************************************************************

 **************************************************************************

                    xk=(   0.32666,   0.56580,   0.00000  )

     Band symmetry, C_2v (mm2)  point group:

     e(  1 -  1) =    -15.14006  eV     1   --> A_1  D_1  S_1  
     e(  2 -  2) =    -14.86173  eV     1   --> B_1  D_3  S_3  
     e(  3 -  3) =    -12.68556  eV     1   --> A_1  D_1  S_1  
     e(  4 -  4) =     -2.74492  eV     1   --> B_2  D_4  S_4  
     e(  5 -  5) =     -2.38492  eV     1   --> A_2  D_2  S_2  
     e(  6 -  6) =      7.97114  eV     1   --> B_2  D_4  S_4  
     e(  7 -  7) =      9.80563  eV     1   --> A_1  D_1  S_1  
     e(  8 -  8) =      9.88201  eV     1   --> B_1  D_3  S_3  

 **************************************************************************

 **************************************************************************

                    xk=(   0.33333,   0.57734,   0.00000  )

     zone border point and non-symmorphic group 
     symmetry decomposition not available

 **************************************************************************

 **************************************************************************

                    xk=(   0.33889,   0.56772,   0.00000  )

     zone border point and non-symmorphic group 
     symmetry decomposition not available

 **************************************************************************

 **************************************************************************

                    xk=(   0.34444,   0.55810,   0.00000  )

     zone border point and non-symmorphic group 
     symmetry decomposition not available

 **************************************************************************

 **************************************************************************

                    xk=(   0.35000,   0.54848,   0.00000  )

     zone border point and non-symmorphic group 
     symmetry decomposition not available

 **************************************************************************

 **************************************************************************

                    xk=(   0.35555,   0.53886,   0.00000  )

     zone border point and non-symmorphic group 
     symmetry decomposition not available

 **************************************************************************

 **************************************************************************

                    xk=(   0.36111,   0.52923,   0.00000  )

     zone border point and non-symmorphic group 
     symmetry decomposition not available

 **************************************************************************

 **************************************************************************

                    xk=(   0.36666,   0.51961,   0.00000  )

     zone border point and non-symmorphic group 
     symmetry decomposition not available

 **************************************************************************

 **************************************************************************

                    xk=(   0.37222,   0.50999,   0.00000  )

     zone border point and non-symmorphic group 
     symmetry decomposition not available

 **************************************************************************

 **************************************************************************

                    xk=(   0.37778,   0.50037,   0.00000  )

     zone border point and non-symmorphic group 
     symmetry decomposition not available

 **************************************************************************

 **************************************************************************

                    xk=(   0.38333,   0.49074,   0.00000  )

     zone border point and non-symmorphic group 
     symmetry decomposition not available

 **************************************************************************

 **************************************************************************

                    xk=(   0.38889,   0.48112,   0.00000  )

     zone border point and non-symmorphic group 
     symmetry decomposition not available

 **************************************************************************

 **************************************************************************

                    xk=(   0.39444,   0.47150,   0.00000  )

     zone border point and non-symmorphic group 
     symmetry decomposition not available

 **************************************************************************

 **************************************************************************

                    xk=(   0.40000,   0.46188,   0.00000  )

     zone border point and non-symmorphic group 
     symmetry decomposition not available

 **************************************************************************

 **************************************************************************

                    xk=(   0.40555,   0.45225,   0.00000  )

     zone border point and non-symmorphic group 
     symmetry decomposition not available

 **************************************************************************

 **************************************************************************

                    xk=(   0.41111,   0.44263,   0.00000  )

     zone border point and non-symmorphic group 
     symmetry decomposition not available

 **************************************************************************

 **************************************************************************

                    xk=(   0.41666,   0.43301,   0.00000  )

     zone border point and non-symmorphic group 
     symmetry decomposition not available

 **************************************************************************

 **************************************************************************

                    xk=(   0.42222,   0.42339,   0.00000  )

     zone border point and non-symmorphic group 
     symmetry decomposition not available

 **************************************************************************

 **************************************************************************

                    xk=(   0.42778,   0.41377,   0.00000  )

     zone border point and non-symmorphic group 
     symmetry decomposition not available

 **************************************************************************

 **************************************************************************

                    xk=(   0.43333,   0.40414,   0.00000  )

     zone border point and non-symmorphic group 
     symmetry decomposition not available

 **************************************************************************

 **************************************************************************

                    xk=(   0.43889,   0.39452,   0.00000  )

     zone border point and non-symmorphic group 
     symmetry decomposition not available

 **************************************************************************

 **************************************************************************

                    xk=(   0.44444,   0.38490,   0.00000  )

     zone border point and non-symmorphic group 
     symmetry decomposition not available

 **************************************************************************

 **************************************************************************

                    xk=(   0.45000,   0.37528,   0.00000  )

     zone border point and non-symmorphic group 
     symmetry decomposition not available

 **************************************************************************

 **************************************************************************

                    xk=(   0.45555,   0.36565,   0.00000  )

     zone border point and non-symmorphic group 
     symmetry decomposition not available

 **************************************************************************

 **************************************************************************

                    xk=(   0.46111,   0.35603,   0.00000  )

     zone border point and non-symmorphic group 
     symmetry decomposition not available

 **************************************************************************

 **************************************************************************

                    xk=(   0.46667,   0.34641,   0.00000  )

     zone border point and non-symmorphic group 
     symmetry decomposition not available

 **************************************************************************

 **************************************************************************

                    xk=(   0.47222,   0.33679,   0.00000  )

     zone border point and non-symmorphic group 
     symmetry decomposition not available

 **************************************************************************

 **************************************************************************

                    xk=(   0.47778,   0.32716,   0.00000  )

     zone border point and non-symmorphic group 
     symmetry decomposition not available

 **************************************************************************

 **************************************************************************

                    xk=(   0.48333,   0.31754,   0.00000  )

     zone border point and non-symmorphic group 
     symmetry decomposition not available

 **************************************************************************

 **************************************************************************

                    xk=(   0.48889,   0.30792,   0.00000  )

     zone border point and non-symmorphic group 
     symmetry decomposition not available

 **************************************************************************

 **************************************************************************

                    xk=(   0.49444,   0.29830,   0.00000  )

     zone border point and non-symmorphic group 
     symmetry decomposition not available

 **************************************************************************

 **************************************************************************

                    xk=(   0.50000,   0.28868,   0.00000  )

     zone border point and non-symmorphic group 
     symmetry decomposition not available

 **************************************************************************

 **************************************************************************

                    xk=(   0.49000,   0.28290,   0.00000  )

     point group C_2v (mm2) 
     there are  4 classes
     the character table:

       E     C2    s_v   s_v' 
A_1    1.00  1.00  1.00  1.00
A_2    1.00  1.00 -1.00 -1.00
B_1    1.00 -1.00  1.00 -1.00
B_2    1.00 -1.00 -1.00  1.00

     the symmetry operations in each class and the name of the first element:

     E        1
                                                                 
     C2       2
                                                                 
     s_v      3
                                                                 
     s_v'     4
                                                                 

     Band symmetry, C_2v (mm2)  point group:

     e(  1 -  1) =    -16.67789  eV     1   --> A_1  D_1  S_1  
     e(  2 -  2) =    -15.40031  eV     1   --> A_1  D_1  S_1  
     e(  3 -  3) =     -8.82987  eV     1   --> B_1  D_3  S_3  
     e(  4 -  4) =     -4.82474  eV     1   --> B_2  D_4  S_4  
     e(  5 -  5) =     -0.89626  eV     1   --> B_2  D_4  S_4  
     e(  6 -  6) =      4.24026  eV     1   --> A_1  D_1  S_1  
     e(  7 -  7) =      8.14549  eV     1   --> A_1  D_1  S_1  
     e(  8 -  8) =      8.75195  eV     1   --> A_1  D_1  S_1  

 **************************************************************************

 **************************************************************************

                    xk=(   0.48000,   0.27713,   0.00000  )

     Band symmetry, C_2v (mm2)  point group:

     e(  1 -  1) =    -16.77177  eV     1   --> A_1  D_1  S_1  
     e(  2 -  2) =    -15.29620  eV     1   --> A_1  D_1  S_1  
     e(  3 -  3) =     -8.82317  eV     1   --> B_1  D_3  S_3  
     e(  4 -  4) =     -4.86755  eV     1   --> B_2  D_4  S_4  
     e(  5 -  5) =     -0.84324  eV     1   --> B_2  D_4  S_4  
     e(  6 -  6) =      4.24414  eV     1   --> A_1  D_1  S_1  
     e(  7 -  7) =      7.86183  eV     1   --> A_1  D_1  S_1  
     e(  8 -  8) =      8.60407  eV     1   --> B_2  D_4  S_4  

 **************************************************************************

 **************************************************************************

                    xk=(   0.47000,   0.27135,   0.00000  )

     Band symmetry, C_2v (mm2)  point group:

     e(  1 -  1) =    -16.90366  eV     1   --> A_1  D_1  S_1  
     e(  2 -  2) =    -15.14728  eV     1   --> A_1  D_1  S_1  
     e(  3 -  3) =     -8.81200  eV     1   --> B_1  D_3  S_3  
     e(  4 -  4) =     -4.93635  eV     1   --> B_2  D_4  S_4  
     e(  5 -  5) =     -0.75744  eV     1   --> B_2  D_4  S_4  
     e(  6 -  6) =      4.25060  eV     1   --> A_1  D_1  S_1  
     e(  7 -  7) =      7.57983  eV     1   --> A_1  D_1  S_1  
     e(  8 -  8) =      8.32032  eV     1   --> B_2  D_4  S_4  

 **************************************************************************

 **************************************************************************

                    xk=(   0.46000,   0.26558,   0.00000  )

     Band symmetry, C_2v (mm2)  point group:

     e(  1 -  1) =    -17.05685  eV     1   --> A_1  D_1  S_1  
     e(  2 -  2) =    -14.97027  eV     1   --> A_1  D_1  S_1  
     e(  3 -  3) =     -8.79637  eV     1   --> B_1  D_3  S_3  
     e(  4 -  4) =     -5.02790  eV     1   --> B_2  D_4  S_4  
     e(  5 -  5) =     -0.64215  eV     1   --> B_2  D_4  S_4  
     e(  6 -  6) =      4.25962  eV     1   --> A_1  D_1  S_1  
     e(  7 -  7) =      7.30196  eV     1   --> A_1  D_1  S_1  
     e(  8 -  8) =      8.03984  eV     1   --> B_2  D_4  S_4  

 **************************************************************************

 **************************************************************************

                    xk=(   0.45000,   0.25981,   0.00000  )

     Band symmetry, C_2v (mm2)  point group:

     e(  1 -  1) =    -17.22121  eV     1   --> A_1  D_1  S_1  
     e(  2 -  2) =    -14.77534  eV     1   --> A_1  D_1  S_1  
     e(  3 -  3) =     -8.77632  eV     1   --> B_1  D_3  S_3  
     e(  4 -  4) =     -5.13851  eV     1   --> B_2  D_4  S_4  
     e(  5 -  5) =     -0.50113  eV     1   --> B_2  D_4  S_4  
     e(  6 -  6) =      4.27116  eV     1   --> A_1  D_1  S_1  
     e(  7 -  7) =      7.02889  eV     1   --> A_1  D_1  S_1  
     e(  8 -  8) =      7.76374  eV     1   --> B_2  D_4  S_4  

 **************************************************************************

 **************************************************************************

                    xk=(   0.44000,   0.25403,   0.00000  )

     Band symmetry, C_2v (mm2)  point group:

     e(  1 -  1) =    -17.39101  eV     1   --> A_1  D_1  S_1  
     e(  2 -  2) =    -14.56824  eV     1   --> A_1  D_1  S_1  
     e(  3 -  3) =     -8.75186  eV     1   --> B_1  D_3  S_3  
     e(  4 -  4) =     -5.26453  eV     1   --> B_2  D_4  S_4  
     e(  5 -  5) =     -0.33811  eV     1   --> B_2  D_4  S_4  
     e(  6 -  6) =      4.28518  eV     1   --> A_1  D_1  S_1  
     e(  7 -  7) =      6.76095  eV     1   --> A_1  D_1  S_1  
     e(  8 -  8) =      7.49254  eV     1   --> B_2  D_4  S_4  

 **************************************************************************

 **************************************************************************

                    xk=(   0.43000,   0.24826,   0.00000  )

     Band symmetry, C_2v (mm2)  point group:

     e(  1 -  1) =    -17.56298  eV     1   --> A_1  D_1  S_1  
     e(  2 -  2) =    -14.35233  eV     1   --> A_1  D_1  S_1  
     e(  3 -  3) =     -8.72302  eV     1   --> B_1  D_3  S_3  
     e(  4 -  4) =     -5.40260  eV     1   --> B_2  D_4  S_4  
     e(  5 -  5) =     -0.15653  eV     1   --> B_2  D_4  S_4  
     e(  6 -  6) =      4.30163  eV     1   --> A_1  D_1  S_1  
     e(  7 -  7) =      6.49836  eV     1   --> A_1  D_1  S_1  
     e(  8 -  8) =      7.22652  eV     1   --> B_2  D_4  S_4  

 **************************************************************************

 **************************************************************************

                    xk=(   0.42000,   0.24249,   0.00000  )

     Band symmetry, C_2v (mm2)  point group:

     e(  1 -  1) =    -17.73513  eV     1   --> A_1  D_1  S_1  
     e(  2 -  2) =    -14.12963  eV     1   --> A_1  D_1  S_1  
     e(  3 -  3) =     -8.68984  eV     1   --> B_1  D_3  S_3  
     e(  4 -  4) =     -5.54980  eV     1   --> B_2  D_4  S_4  
     e(  5 -  5) =      0.04057  eV     1   --> B_2  D_4  S_4  
     e(  6 -  6) =      4.32042  eV     1   --> A_1  D_1  S_1  
     e(  7 -  7) =      6.24130  eV     1   --> A_1  D_1  S_1  
     e(  8 -  8) =      6.96591  eV     1   --> B_2  D_4  S_4  

 **************************************************************************

 **************************************************************************

                    xk=(   0.41000,   0.23671,   0.00000  )

     Band symmetry, C_2v (mm2)  point group:

     e(  1 -  1) =    -17.90622  eV     1   --> A_1  D_1  S_1  
     e(  2 -  2) =    -13.90144  eV     1   --> A_1  D_1  S_1  
     e(  3 -  3) =     -8.65236  eV     1   --> B_1  D_3  S_3  
     e(  4 -  4) =     -5.70369  eV     1   --> B_2  D_4  S_4  
     e(  5 -  5) =      0.25061  eV     1   --> B_2  D_4  S_4  
     e(  6 -  6) =      4.34145  eV     1   --> A_1  D_1  S_1  
     e(  7 -  7) =      5.98994  eV     1   --> A_1  D_1  S_1  
     e(  8 -  8) =      6.71085  eV     1   --> B_2  D_4  S_4  

 **************************************************************************

 **************************************************************************

                    xk=(   0.40000,   0.23094,   0.00000  )

     Band symmetry, C_2v (mm2)  point group:

     e(  1 -  1) =    -18.07544  eV     1   --> A_1  D_1  S_1  
     e(  2 -  2) =    -13.66867  eV     1   --> A_1  D_1  S_1  
     e(  3 -  3) =     -8.61063  eV     1   --> B_1  D_3  S_3  
     e(  4 -  4) =     -5.86225  eV     1   --> B_2  D_4  S_4  
     e(  5 -  5) =      0.47142  eV     1   --> B_2  D_4  S_4  
     e(  6 -  6) =      4.36456  eV     1   --> A_1  D_1  S_1  
     e(  7 -  7) =      5.74447  eV     1   --> A_1  D_1  S_1  
     e(  8 -  8) =      6.46146  eV     1   --> B_2  D_4  S_4  

 **************************************************************************

 **************************************************************************

                    xk=(   0.39000,   0.22517,   0.00000  )

     Band symmetry, C_2v (mm2)  point group:

     e(  1 -  1) =    -18.24223  eV     1   --> A_1  D_1  S_1  
     e(  2 -  2) =    -13.43197  eV     1   --> A_1  D_1  S_1  
     e(  3 -  3) =     -8.56470  eV     1   --> B_1  D_3  S_3  
     e(  4 -  4) =     -6.02382  eV     1   --> B_2  D_4  S_4  
     e(  5 -  5) =      0.70115  eV     1   --> B_2  D_4  S_4  
     e(  6 -  6) =      4.38949  eV     1   --> A_1  D_1  S_1  
     e(  7 -  7) =      5.50515  eV     1   --> A_1  D_1  S_1  
     e(  8 -  8) =      6.21784  eV     1   --> B_2  D_4  S_4  

 **************************************************************************

 **************************************************************************

                    xk=(   0.38000,   0.21939,   0.00000  )

     Band symmetry, C_2v (mm2)  point group:

     e(  1 -  1) =    -18.40619  eV     1   --> A_1  D_1  S_1  
     e(  2 -  2) =    -13.19183  eV     1   --> A_1  D_1  S_1  
     e(  3 -  3) =     -8.51464  eV     1   --> B_1  D_3  S_3  
     e(  4 -  4) =     -6.18705  eV     1   --> B_2  D_4  S_4  
     e(  5 -  5) =      0.93828  eV     1   --> B_2  D_4  S_4  
     e(  6 -  6) =      4.41573  eV     1   --> A_1  D_1  S_1  
     e(  7 -  7) =      5.27246  eV     1   --> A_1  D_1  S_1  
     e(  8 -  8) =      5.98007  eV     1   --> B_2  D_4  S_4  

 **************************************************************************

 **************************************************************************

                    xk=(   0.37000,   0.21362,   0.00000  )

     Band symmetry, C_2v (mm2)  point group:

     e(  1 -  1) =    -18.56703  eV     1   --> A_1  D_1  S_1  
     e(  2 -  2) =    -12.94867  eV     1   --> A_1  D_1  S_1  
     e(  3 -  3) =     -8.46052  eV     1   --> B_1  D_3  S_3  
     e(  4 -  4) =     -6.35084  eV     1   --> B_2  D_4  S_4  
     e(  5 -  5) =      1.18148  eV     1   --> B_2  D_4  S_4  
     e(  6 -  6) =      4.44210  eV     1   --> A_1  D_1  S_1  
     e(  7 -  7) =      5.04754  eV     1   --> A_1  D_1  S_1  
     e(  8 -  8) =      5.74822  eV     1   --> B_2  D_4  S_4  

 **************************************************************************

 **************************************************************************

                    xk=(   0.36000,   0.20785,   0.00000  )

     Band symmetry, C_2v (mm2)  point group:

     e(  1 -  1) =    -18.72451  eV     1   --> A_1  D_1  S_1  
     e(  2 -  2) =    -12.70283  eV     1   --> A_1  D_1  S_1  
     e(  3 -  3) =     -8.40241  eV     1   --> B_1  D_3  S_3  
     e(  4 -  4) =     -6.51430  eV     1   --> B_2  D_4  S_4  
     e(  5 -  5) =      1.42961  eV     1   --> B_2  D_4  S_4  
     e(  6 -  6) =      4.46455  eV     1   --> A_1  D_1  S_1  
     e(  7 -  7) =      4.83437  eV     1   --> A_1  D_1  S_1  
     e(  8 -  8) =      5.52237  eV     1   --> B_2  D_4  S_4  

 **************************************************************************

 **************************************************************************

                    xk=(   0.35000,   0.20207,   0.00000  )

     Band symmetry, C_2v (mm2)  point group:

     e(  1 -  1) =    -18.87848  eV     1   --> A_1  D_1  S_1  
     e(  2 -  2) =    -12.45463  eV     1   --> A_1  D_1  S_1  
     e(  3 -  3) =     -8.34041  eV     1   --> B_1  D_3  S_3  
     e(  4 -  4) =     -6.67670  eV     1   --> B_2  D_4  S_4  
     e(  5 -  5) =      1.68166  eV     1   --> B_2  D_4  S_4  
     e(  6 -  6) =      4.45959  eV     1   --> A_1  D_1  S_1  
     e(  7 -  7) =      4.65630  eV     1   --> A_1  D_1  S_1  
     e(  8 -  8) =      5.30258  eV     1   --> B_2  D_4  S_4  

 **************************************************************************

 **************************************************************************

                    xk=(   0.34000,   0.19630,   0.00000  )

     Band symmetry, C_2v (mm2)  point group:

     e(  1 -  1) =    -19.02879  eV     1   --> A_1  D_1  S_1  
     e(  2 -  2) =    -12.20436  eV     1   --> A_1  D_1  S_1  
     e(  3 -  3) =     -8.27461  eV     1   --> B_1  D_3  S_3  
     e(  4 -  4) =     -6.83741  eV     1   --> B_2  D_4  S_4  
     e(  5 -  5) =      1.93671  eV     1   --> B_2  D_4  S_4  
     e(  6 -  6) =      4.34165  eV     1   --> A_1  D_1  S_1  
     e(  7 -  7) =      4.59868  eV     1   --> A_1  D_1  S_1  
     e(  8 -  8) =      5.08894  eV     1   --> B_2  D_4  S_4  

 **************************************************************************

 **************************************************************************

                    xk=(   0.33000,   0.19053,   0.00000  )

     Band symmetry, C_2v (mm2)  point group:

     e(  1 -  1) =    -19.17532  eV     1   --> A_1  D_1  S_1  
     e(  2 -  2) =    -11.95230  eV     1   --> A_1  D_1  S_1  
     e(  3 -  3) =     -8.20511  eV     1   --> B_1  D_3  S_3  
     e(  4 -  4) =     -6.99594  eV     1   --> B_2  D_4  S_4  
     e(  5 -  5) =      2.19388  eV     1   --> B_2  D_4  S_4  
     e(  6 -  6) =      4.15571  eV     1   --> A_1  D_1  S_1  
     e(  7 -  7) =      4.61595  eV     1   --> A_1  D_1  S_1  
     e(  8 -  8) =      4.88156  eV     1   --> B_2  D_4  S_4  

 **************************************************************************

 **************************************************************************

                    xk=(   0.32000,   0.18475,   0.00000  )

     Band symmetry, C_2v (mm2)  point group:

     e(  1 -  1) =    -19.31800  eV     1   --> A_1  D_1  S_1  
     e(  2 -  2) =    -11.69874  eV     1   --> A_1  D_1  S_1  
     e(  3 -  3) =     -8.13204  eV     1   --> B_1  D_3  S_3  
     e(  4 -  4) =     -7.15186  eV     1   --> B_2  D_4  S_4  
     e(  5 -  5) =      2.45228  eV     1   --> B_2  D_4  S_4  
     e(  6 -  6) =      3.96265  eV     1   --> A_1  D_1  S_1  
     e(  7 -  7) =      4.64447  eV     1   --> A_1  D_1  S_1  
     e(  8 -  8) =      4.68060  eV     1   --> B_2  D_4  S_4  

 **************************************************************************

 **************************************************************************

                    xk=(   0.31000,   0.17898,   0.00000  )

     Band symmetry, C_2v (mm2)  point group:

     e(  1 -  1) =    -19.45673  eV     1   --> A_1  D_1  S_1  
     e(  2 -  2) =    -11.44395  eV     1   --> A_1  D_1  S_1  
     e(  3 -  3) =     -8.05552  eV     1   --> B_1  D_3  S_3  
     e(  4 -  4) =     -7.30481  eV     1   --> B_2  D_4  S_4  
     e(  5 -  5) =      2.71094  eV     1   --> B_2  D_4  S_4  
     e(  6 -  6) =      3.77218  eV     1   --> A_1  D_1  S_1  
     e(  7 -  7) =      4.48635  eV     1   --> B_2  D_4  S_4  
     e(  8 -  8) =      4.61186  eV     1   --> A_1  D_1  S_1  

 **************************************************************************

 **************************************************************************

                    xk=(   0.30000,   0.17321,   0.00000  )

     Band symmetry, C_2v (mm2)  point group:

     e(  1 -  1) =    -19.59144  eV     1   --> A_1  D_1  S_1  
     e(  2 -  2) =    -11.18823  eV     1   --> A_1  D_1  S_1  
     e(  3 -  3) =     -7.97571  eV     1   --> B_1  D_3  S_3  
     e(  4 -  4) =     -7.45448  eV     1   --> B_2  D_4  S_4  
     e(  5 -  5) =      2.96853  eV     1   --> B_2  D_4  S_4  
     e(  6 -  6) =      3.58641  eV     1   --> A_1  D_1  S_1  
     e(  7 -  7) =      4.29945  eV     1   --> B_2  D_4  S_4  
     e(  8 -  8) =      4.43398  eV     1   --> A_1  D_1  S_1  

 **************************************************************************

 **************************************************************************

                    xk=(   0.29000,   0.16743,   0.00000  )

     Band symmetry, C_2v (mm2)  point group:

     e(  1 -  1) =    -19.72210  eV     1   --> A_1  D_1  S_1  
     e(  2 -  2) =    -10.93189  eV     1   --> A_1  D_1  S_1  
     e(  3 -  3) =     -7.89274  eV     1   --> B_1  D_3  S_3  
     e(  4 -  4) =     -7.60062  eV     1   --> B_2  D_4  S_4  
     e(  5 -  5) =      3.22253  eV     1   --> B_2  D_4  S_4  
     e(  6 -  6) =      3.40602  eV     1   --> A_1  D_1  S_1  
     e(  7 -  7) =      4.12168  eV     1   --> B_2  D_4  S_4  
     e(  8 -  8) =      4.25016  eV     1   --> A_1  D_1  S_1  

 **************************************************************************

 **************************************************************************

                    xk=(   0.28000,   0.16166,   0.00000  )

     Band symmetry, C_2v (mm2)  point group:

     e(  1 -  1) =    -19.84863  eV     1   --> A_1  D_1  S_1  
     e(  2 -  2) =    -10.67523  eV     1   --> A_1  D_1  S_1  
     e(  3 -  3) =     -7.80681  eV     1   --> B_1  D_3  S_3  
     e(  4 -  4) =     -7.74300  eV     1   --> B_2  D_4  S_4  
     e(  5 -  5) =      3.23132  eV     1   --> A_1  D_1  S_1  
     e(  6 -  6) =      3.46439  eV     1   --> B_2  D_4  S_4  
     e(  7 -  7) =      3.96077  eV     1   --> B_2  D_4  S_4  
     e(  8 -  8) =      4.07127  eV     1   --> A_1  D_1  S_1  

 **************************************************************************

 **************************************************************************

                    xk=(   0.27000,   0.15588,   0.00000  )

     Band symmetry, C_2v (mm2)  point group:

     e(  1 -  1) =    -19.97100  eV     1   --> A_1  D_1  S_1  
     e(  2 -  2) =    -10.41860  eV     1   --> A_1  D_1  S_1  
     e(  3 -  3) =     -7.88142  eV     1   --> B_2  D_4  S_4  
     e(  4 -  4) =     -7.71810  eV     1   --> B_1  D_3  S_3  
     e(  5 -  5) =      3.06247  eV     1   --> A_1  D_1  S_1  
     e(  6 -  6) =      3.62709  eV     1   --> B_2  D_4  S_4  
     e(  7 -  7) =      3.88250  eV     1   --> B_2  D_4  S_4  
     e(  8 -  8) =      3.89826  eV     1   --> A_1  D_1  S_1  

 **************************************************************************

 **************************************************************************

                    xk=(   0.26000,   0.15011,   0.00000  )

     Band symmetry, C_2v (mm2)  point group:

     e(  1 -  1) =    -20.08916  eV     1   --> A_1  D_1  S_1  
     e(  2 -  2) =    -10.16236  eV     1   --> A_1  D_1  S_1  
     e(  3 -  3) =     -8.01572  eV     1   --> B_2  D_4  S_4  
     e(  4 -  4) =     -7.62681  eV     1   --> B_1  D_3  S_3  
     e(  5 -  5) =      2.89955  eV     1   --> A_1  D_1  S_1  
     e(  6 -  6) =      3.55248  eV     1   --> B_2  D_4  S_4  
     e(  7 -  7) =      3.73137  eV     1   --> A_1  D_1  S_1  
     e(  8 -  8) =      4.04232  eV     1   --> B_2  D_4  S_4  

 **************************************************************************

 **************************************************************************

                    xk=(   0.25000,   0.14434,   0.00000  )

     Band symmetry, C_2v (mm2)  point group:

     e(  1 -  1) =    -20.20309  eV     1   --> A_1  D_1  S_1  
     e(  2 -  2) =     -9.90689  eV     1   --> A_1  D_1  S_1  
     e(  3 -  3) =     -8.14575  eV     1   --> B_2  D_4  S_4  
     e(  4 -  4) =     -7.53317  eV     1   --> B_1  D_3  S_3  
     e(  5 -  5) =      2.74262  eV     1   --> A_1  D_1  S_1  
     e(  6 -  6) =      3.40971  eV     1   --> B_2  D_4  S_4  
     e(  7 -  7) =      3.57069  eV     1   --> A_1  D_1  S_1  
     e(  8 -  8) =      4.25872  eV     1   --> B_2  D_4  S_4  

 **************************************************************************

 **************************************************************************

                    xk=(   0.24000,   0.13856,   0.00000  )

     Band symmetry, C_2v (mm2)  point group:

     e(  1 -  1) =    -20.31275  eV     1   --> A_1  D_1  S_1  
     e(  2 -  2) =     -9.65259  eV     1   --> A_1  D_1  S_1  
     e(  3 -  3) =     -8.27138  eV     1   --> B_2  D_4  S_4  
     e(  4 -  4) =     -7.43744  eV     1   --> B_1  D_3  S_3  
     e(  5 -  5) =      2.59173  eV     1   --> A_1  D_1  S_1  
     e(  6 -  6) =      3.26268  eV     1   --> B_2  D_4  S_4  
     e(  7 -  7) =      3.41626  eV     1   --> A_1  D_1  S_1  
     e(  8 -  8) =      4.34932  eV     1   --> B_2  D_4  S_4  

 **************************************************************************

 **************************************************************************

                    xk=(   0.23000,   0.13279,   0.00000  )

     Band symmetry, C_2v (mm2)  point group:

     e(  1 -  1) =    -20.41811  eV     1   --> A_1  D_1  S_1  
     e(  2 -  2) =     -9.39991  eV     1   --> A_1  D_1  S_1  
     e(  3 -  3) =     -8.39249  eV     1   --> B_2  D_4  S_4  
     e(  4 -  4) =     -7.33987  eV     1   --> B_1  D_3  S_3  
     e(  5 -  5) =      2.44690  eV     1   --> A_1  D_1  S_1  
     e(  6 -  6) =      3.11889  eV     1   --> B_2  D_4  S_4  
     e(  7 -  7) =      3.26810  eV     1   --> A_1  D_1  S_1  
     e(  8 -  8) =      4.24224  eV     1   --> B_2  D_4  S_4  

 **************************************************************************

 **************************************************************************

                    xk=(   0.22000,   0.12702,   0.00000  )

     Band symmetry, C_2v (mm2)  point group:

     e(  1 -  1) =    -20.51914  eV     1   --> A_1  D_1  S_1  
     e(  2 -  2) =     -9.14933  eV     1   --> A_1  D_1  S_1  
     e(  3 -  3) =     -8.50898  eV     1   --> B_2  D_4  S_4  
     e(  4 -  4) =     -7.24078  eV     1   --> B_1  D_3  S_3  
     e(  5 -  5) =      2.30816  eV     1   --> A_1  D_1  S_1  
     e(  6 -  6) =      2.98006  eV     1   --> B_2  D_4  S_4  
     e(  7 -  7) =      3.12623  eV     1   --> A_1  D_1  S_1  
     e(  8 -  8) =      4.11088  eV     1   --> B_2  D_4  S_4  

 **************************************************************************

 **************************************************************************

                    xk=(   0.21000,   0.12124,   0.00000  )

     Band symmetry, C_2v (mm2)  point group:

     e(  1 -  1) =    -20.61582  eV     1   --> A_1  D_1  S_1  
     e(  2 -  2) =     -8.90135  eV     1   --> A_1  D_1  S_1  
     e(  3 -  3) =     -8.62076  eV     1   --> B_2  D_4  S_4  
     e(  4 -  4) =     -7.14048  eV     1   --> B_1  D_3  S_3  
     e(  5 -  5) =      2.17551  eV     1   --> A_1  D_1  S_1  
     e(  6 -  6) =      2.84682  eV     1   --> B_2  D_4  S_4  
     e(  7 -  7) =      2.99064  eV     1   --> A_1  D_1  S_1  
     e(  8 -  8) =      3.98060  eV     1   --> B_2  D_4  S_4  

 **************************************************************************

 **************************************************************************

                    xk=(   0.20000,   0.11547,   0.00000  )

     Band symmetry, C_2v (mm2)  point group:

     e(  1 -  1) =    -20.70812  eV     1   --> A_1  D_1  S_1  
     e(  2 -  2) =     -8.72775  eV     1   --> B_2  D_4  S_4  
     e(  3 -  3) =     -8.65651  eV     1   --> A_1  D_1  S_1  
     e(  4 -  4) =     -7.03932  eV     1   --> B_1  D_3  S_3  
     e(  5 -  5) =      2.04898  eV     1   --> A_1  D_1  S_1  
     e(  6 -  6) =      2.71944  eV     1   --> B_2  D_4  S_4  
     e(  7 -  7) =      2.86135  eV     1   --> A_1  D_1  S_1  
     e(  8 -  8) =      3.85483  eV     1   --> B_2  D_4  S_4  

 **************************************************************************

 **************************************************************************

                    xk=(   0.19000,   0.10970,   0.00000  )

     Band symmetry, C_2v (mm2)  point group:

     e(  1 -  1) =    -20.79604  eV     1   --> A_1  D_1  S_1  
     e(  2 -  2) =     -8.82989  eV     1   --> B_2  D_4  S_4  
     e(  3 -  3) =     -8.41542  eV     1   --> A_1  D_1  S_1  
     e(  4 -  4) =     -6.93769  eV     1   --> B_1  D_3  S_3  
     e(  5 -  5) =      1.92858  eV     1   --> A_1  D_1  S_1  
     e(  6 -  6) =      2.59806  eV     1   --> B_2  D_4  S_4  
     e(  7 -  7) =      2.73836  eV     1   --> A_1  D_1  S_1  
     e(  8 -  8) =      3.73452  eV     1   --> B_2  D_4  S_4  

 **************************************************************************

 **************************************************************************

                    xk=(   0.18000,   0.10392,   0.00000  )

     Band symmetry, C_2v (mm2)  point group:

     e(  1 -  1) =    -20.87954  eV     1   --> A_1  D_1  S_1  
     e(  2 -  2) =     -8.92709  eV     1   --> B_2  D_4  S_4  
     e(  3 -  3) =     -8.17871  eV     1   --> A_1  D_1  S_1  
     e(  4 -  4) =     -6.83600  eV     1   --> B_1  D_3  S_3  
     e(  5 -  5) =      1.81431  eV     1   --> A_1  D_1  S_1  
     e(  6 -  6) =      2.48276  eV     1   --> B_2  D_4  S_4  
     e(  7 -  7) =      2.62167  eV     1   --> A_1  D_1  S_1  
     e(  8 -  8) =      3.62001  eV     1   --> B_2  D_4  S_4  

 **************************************************************************

 **************************************************************************

                    xk=(   0.17000,   0.09815,   0.00000  )

     Band symmetry, C_2v (mm2)  point group:

     e(  1 -  1) =    -20.95862  eV     1   --> A_1  D_1  S_1  
     e(  2 -  2) =     -9.01931  eV     1   --> B_2  D_4  S_4  
     e(  3 -  3) =     -7.94705  eV     1   --> A_1  D_1  S_1  
     e(  4 -  4) =     -6.73470  eV     1   --> B_1  D_3  S_3  
     e(  5 -  5) =      1.70619  eV     1   --> A_1  D_1  S_1  
     e(  6 -  6) =      2.37358  eV     1   --> B_2  D_4  S_4  
     e(  7 -  7) =      2.51128  eV     1   --> A_1  D_1  S_1  
     e(  8 -  8) =      3.51147  eV     1   --> B_2  D_4  S_4  

 **************************************************************************

 **************************************************************************

                    xk=(   0.16000,   0.09238,   0.00000  )

     Band symmetry, C_2v (mm2)  point group:

     e(  1 -  1) =    -21.03326  eV     1   --> A_1  D_1  S_1  
     e(  2 -  2) =     -9.10650  eV     1   --> B_2  D_4  S_4  
     e(  3 -  3) =     -7.72119  eV     1   --> A_1  D_1  S_1  
     e(  4 -  4) =     -6.63427  eV     1   --> B_1  D_3  S_3  
     e(  5 -  5) =      1.60422  eV     1   --> A_1  D_1  S_1  
     e(  6 -  6) =      2.27057  eV     1   --> B_2  D_4  S_4  
     e(  7 -  7) =      2.40720  eV     1   --> A_1  D_1  S_1  
     e(  8 -  8) =      3.40899  eV     1   --> B_2  D_4  S_4  

 **************************************************************************

 **************************************************************************

                    xk=(   0.15000,   0.08660,   0.00000  )

     Band symmetry, C_2v (mm2)  point group:

     e(  1 -  1) =    -21.10343  eV     1   --> A_1  D_1  S_1  
     e(  2 -  2) =     -9.18860  eV     1   --> B_2  D_4  S_4  
     e(  3 -  3) =     -7.50191  eV     1   --> A_1  D_1  S_1  
     e(  4 -  4) =     -6.53523  eV     1   --> B_1  D_3  S_3  
     e(  5 -  5) =      1.50842  eV     1   --> A_1  D_1  S_1  
     e(  6 -  6) =      2.17375  eV     1   --> B_2  D_4  S_4  
     e(  7 -  7) =      2.30942  eV     1   --> A_1  D_1  S_1  
     e(  8 -  8) =      3.31263  eV     1   --> B_2  D_4  S_4  

 **************************************************************************

 **************************************************************************

                    xk=(   0.14000,   0.08083,   0.00000  )

     Band symmetry, C_2v (mm2)  point group:

     e(  1 -  1) =    -21.16914  eV     1   --> A_1  D_1  S_1  
     e(  2 -  2) =     -9.26557  eV     1   --> B_2  D_4  S_4  
     e(  3 -  3) =     -7.29003  eV     1   --> A_1  D_1  S_1  
     e(  4 -  4) =     -6.43814  eV     1   --> B_1  D_3  S_3  
     e(  5 -  5) =      1.41877  eV     1   --> A_1  D_1  S_1  
     e(  6 -  6) =      2.08313  eV     1   --> B_2  D_4  S_4  
     e(  7 -  7) =      2.21795  eV     1   --> A_1  D_1  S_1  
     e(  8 -  8) =      3.22241  eV     1   --> B_2  D_4  S_4  

 **************************************************************************

 **************************************************************************

                    xk=(   0.13000,   0.07506,   0.00000  )

     Band symmetry, C_2v (mm2)  point group:

     e(  1 -  1) =    -21.23036  eV     1   --> A_1  D_1  S_1  
     e(  2 -  2) =     -9.33739  eV     1   --> B_2  D_4  S_4  
     e(  3 -  3) =     -7.08645  eV     1   --> A_1  D_1  S_1  
     e(  4 -  4) =     -6.34358  eV     1   --> B_1  D_3  S_3  
     e(  5 -  5) =      1.33530  eV     1   --> A_1  D_1  S_1  
     e(  6 -  6) =      1.99872  eV     1   --> B_2  D_4  S_4  
     e(  7 -  7) =      2.13278  eV     1   --> A_1  D_1  S_1  
     e(  8 -  8) =      3.13836  eV     1   --> B_2  D_4  S_4  

 **************************************************************************

 **************************************************************************

                    xk=(   0.12000,   0.06928,   0.00000  )

     Band symmetry, C_2v (mm2)  point group:

     e(  1 -  1) =    -21.28709  eV     1   --> A_1  D_1  S_1  
     e(  2 -  2) =     -9.40400  eV     1   --> B_2  D_4  S_4  
     e(  3 -  3) =     -6.89210  eV     1   --> A_1  D_1  S_1  
     e(  4 -  4) =     -6.25217  eV     1   --> B_1  D_3  S_3  
     e(  5 -  5) =      1.25800  eV     1   --> A_1  D_1  S_1  
     e(  6 -  6) =      1.92055  eV     1   --> B_2  D_4  S_4  
     e(  7 -  7) =      2.05393  eV     1   --> A_1  D_1  S_1  
     e(  8 -  8) =      3.06051  eV     1   --> B_2  D_4  S_4  

 **************************************************************************

 **************************************************************************

                    xk=(   0.11000,   0.06351,   0.00000  )

     Band symmetry, C_2v (mm2)  point group:

     e(  1 -  1) =    -21.33931  eV     1   --> A_1  D_1  S_1  
     e(  2 -  2) =     -9.46539  eV     1   --> B_2  D_4  S_4  
     e(  3 -  3) =     -6.70795  eV     1   --> A_1  D_1  S_1  
     e(  4 -  4) =     -6.16457  eV     1   --> B_1  D_3  S_3  
     e(  5 -  5) =      1.18687  eV     1   --> A_1  D_1  S_1  
     e(  6 -  6) =      1.84860  eV     1   --> B_2  D_4  S_4  
     e(  7 -  7) =      1.98138  eV     1   --> A_1  D_1  S_1  
     e(  8 -  8) =      2.98885  eV     1   --> B_2  D_4  S_4  

 **************************************************************************

 **************************************************************************

                    xk=(   0.10000,   0.05774,   0.00000  )

     Band symmetry, C_2v (mm2)  point group:

     e(  1 -  1) =    -21.38702  eV     1   --> A_1  D_1  S_1  
     e(  2 -  2) =     -9.52152  eV     1   --> B_2  D_4  S_4  
     e(  3 -  3) =     -6.53501  eV     1   --> A_1  D_1  S_1  
     e(  4 -  4) =     -6.08143  eV     1   --> B_1  D_3  S_3  
     e(  5 -  5) =      1.12192  eV     1   --> A_1  D_1  S_1  
     e(  6 -  6) =      1.78290  eV     1   --> B_2  D_4  S_4  
     e(  7 -  7) =      1.91514  eV     1   --> A_1  D_1  S_1  
     e(  8 -  8) =      2.92340  eV     1   --> B_2  D_4  S_4  

 **************************************************************************

 **************************************************************************

                    xk=(   0.09000,   0.05196,   0.00000  )

     Band symmetry, C_2v (mm2)  point group:

     e(  1 -  1) =    -21.43021  eV     1   --> A_1  D_1  S_1  
     e(  2 -  2) =     -9.57238  eV     1   --> B_2  D_4  S_4  
     e(  3 -  3) =     -6.37431  eV     1   --> A_1  D_1  S_1  
     e(  4 -  4) =     -6.00344  eV     1   --> B_1  D_3  S_3  
     e(  5 -  5) =      1.06316  eV     1   --> A_1  D_1  S_1  
     e(  6 -  6) =      1.72344  eV     1   --> B_2  D_4  S_4  
     e(  7 -  7) =      1.85521  eV     1   --> A_1  D_1  S_1  
     e(  8 -  8) =      2.86417  eV     1   --> B_2  D_4  S_4  

 **************************************************************************

 **************************************************************************

                    xk=(   0.08000,   0.04619,   0.00000  )

     Band symmetry, C_2v (mm2)  point group:

     e(  1 -  1) =    -21.46888  eV     1   --> A_1  D_1  S_1  
     e(  2 -  2) =     -9.61794  eV     1   --> B_2  D_4  S_4  
     e(  3 -  3) =     -6.22689  eV     1   --> A_1  D_1  S_1  
     e(  4 -  4) =     -5.93129  eV     1   --> B_1  D_3  S_3  
     e(  5 -  5) =      1.01058  eV     1   --> A_1  D_1  S_1  
     e(  6 -  6) =      1.67022  eV     1   --> B_2  D_4  S_4  
     e(  7 -  7) =      1.80159  eV     1   --> A_1  D_1  S_1  
     e(  8 -  8) =      2.81116  eV     1   --> B_2  D_4  S_4  

 **************************************************************************

 **************************************************************************

                    xk=(   0.07000,   0.04041,   0.00000  )

     Band symmetry, C_2v (mm2)  point group:

     e(  1 -  1) =    -21.50301  eV     1   --> A_1  D_1  S_1  
     e(  2 -  2) =     -9.65817  eV     1   --> B_2  D_4  S_4  
     e(  3 -  3) =     -6.09379  eV     1   --> A_1  D_1  S_1  
     e(  4 -  4) =     -5.86566  eV     1   --> B_1  D_3  S_3  
     e(  5 -  5) =      0.96418  eV     1   --> A_1  D_1  S_1  
     e(  6 -  6) =      1.62327  eV     1   --> B_2  D_4  S_4  
     e(  7 -  7) =      1.75428  eV     1   --> A_1  D_1  S_1  
     e(  8 -  8) =      2.76438  eV     1   --> B_2  D_4  S_4  

 **************************************************************************

 **************************************************************************

                    xk=(   0.06000,   0.03464,   0.00000  )

     Band symmetry, C_2v (mm2)  point group:

     e(  1 -  1) =    -21.53260  eV     1   --> A_1  D_1  S_1  
     e(  2 -  2) =     -9.69308  eV     1   --> B_2  D_4  S_4  
     e(  3 -  3) =     -5.97601  eV     1   --> A_1  D_1  S_1  
     e(  4 -  4) =     -5.80721  eV     1   --> B_1  D_3  S_3  
     e(  5 -  5) =      0.92397  eV     1   --> A_1  D_1  S_1  
     e(  6 -  6) =      1.58256  eV     1   --> B_2  D_4  S_4  
     e(  7 -  7) =      1.71327  eV     1   --> A_1  D_1  S_1  
     e(  8 -  8) =      2.72383  eV     1   --> B_2  D_4  S_4  

 **************************************************************************

 **************************************************************************

                    xk=(   0.05000,   0.02887,   0.00000  )

     Band symmetry, C_2v (mm2)  point group:

     e(  1 -  1) =    -21.55765  eV     1   --> A_1  D_1  S_1  
     e(  2 -  2) =     -9.72264  eV     1   --> B_2  D_4  S_4  
     e(  3 -  3) =     -5.87451  eV     1   --> A_1  D_1  S_1  
     e(  4 -  4) =     -5.75655  eV     1   --> B_1  D_3  S_3  
     e(  5 -  5) =      0.88995  eV     1   --> A_1  D_1  S_1  
     e(  6 -  6) =      1.54812  eV     1   --> B_2  D_4  S_4  
     e(  7 -  7) =      1.67858  eV     1   --> A_1  D_1  S_1  
     e(  8 -  8) =      2.68951  eV     1   --> B_2  D_4  S_4  

 **************************************************************************

 **************************************************************************

                    xk=(   0.04000,   0.02309,   0.00000  )

     Band symmetry, C_2v (mm2)  point group:

     e(  1 -  1) =    -21.57814  eV     1   --> A_1  D_1  S_1  
     e(  2 -  2) =     -9.74684  eV     1   --> B_2  D_4  S_4  
     e(  3 -  3) =     -5.79014  eV     1   --> A_1  D_1  S_1  
     e(  4 -  4) =     -5.71425  eV     1   --> B_1  D_3  S_3  
     e(  5 -  5) =      0.86211  eV     1   --> A_1  D_1  S_1  
     e(  6 -  6) =      1.51994  eV     1   --> B_2  D_4  S_4  
     e(  7 -  7) =      1.65019  eV     1   --> A_1  D_1  S_1  
     e(  8 -  8) =      2.66143  eV     1   --> B_2  D_4  S_4  

 **************************************************************************

 **************************************************************************

                    xk=(   0.03000,   0.01732,   0.00000  )

     Band symmetry, C_2v (mm2)  point group:

     e(  1 -  1) =    -21.59409  eV     1   --> A_1  D_1  S_1  
     e(  2 -  2) =     -9.76567  eV     1   --> B_2  D_4  S_4  
     e(  3 -  3) =     -5.72367  eV     1   --> A_1  D_1  S_1  
     e(  4 -  4) =     -5.68081  eV     1   --> B_1  D_3  S_3  
     e(  5 -  5) =      0.84046  eV     1   --> A_1  D_1  S_1  
     e(  6 -  6) =      1.49802  eV     1   --> B_2  D_4  S_4  
     e(  7 -  7) =      1.62811  eV     1   --> A_1  D_1  S_1  
     e(  8 -  8) =      2.63959  eV     1   --> B_2  D_4  S_4  

 **************************************************************************

 **************************************************************************

                    xk=(   0.02000,   0.01155,   0.00000  )

     Band symmetry, C_2v (mm2)  point group:

     e(  1 -  1) =    -21.60548  eV     1   --> A_1  D_1  S_1  
     e(  2 -  2) =     -9.77912  eV     1   --> B_2  D_4  S_4  
     e(  3 -  3) =     -5.67572  eV     1   --> A_1  D_1  S_1  
     e(  4 -  4) =     -5.65661  eV     1   --> B_1  D_3  S_3  
     e(  5 -  5) =      0.82500  eV     1   --> A_1  D_1  S_1  
     e(  6 -  6) =      1.48236  eV     1   --> B_2  D_4  S_4  
     e(  7 -  7) =      1.61234  eV     1   --> A_1  D_1  S_1  
     e(  8 -  8) =      2.62399  eV     1   --> B_2  D_4  S_4  

 **************************************************************************

 **************************************************************************

                    xk=(   0.01000,   0.00577,   0.00000  )

     Band symmetry, C_2v (mm2)  point group:

     e(  1 -  1) =    -21.61232  eV     1   --> A_1  D_1  S_1  
     e(  2 -  2) =     -9.78720  eV     1   --> B_2  D_4  S_4  
     e(  3 -  3) =     -5.64676  eV     1   --> A_1  D_1  S_1  
     e(  4 -  4) =     -5.64197  eV     1   --> B_1  D_3  S_3  
     e(  5 -  5) =      0.81572  eV     1   --> A_1  D_1  S_1  
     e(  6 -  6) =      1.47296  eV     1   --> B_2  D_4  S_4  
     e(  7 -  7) =      1.60288  eV     1   --> A_1  D_1  S_1  
     e(  8 -  8) =      2.61463  eV     1   --> B_2  D_4  S_4  

 **************************************************************************

 **************************************************************************

                    xk=(   0.00000,   0.00000,   0.00000  )

     point group D_6h(6/mmm)
     there are 12 classes
     the character table:

       E     2C6   2C3   C2    3C2'  3C2'' i     2S3   2S6   s_h   3s_d  3s_v 
A_1g   1.00  1.00  1.00  1.00  1.00  1.00  1.00  1.00  1.00  1.00  1.00  1.00
A_2g   1.00  1.00  1.00  1.00 -1.00 -1.00  1.00  1.00  1.00  1.00 -1.00 -1.00
B_1g   1.00 -1.00  1.00 -1.00  1.00 -1.00  1.00 -1.00  1.00 -1.00  1.00 -1.00
B_2g   1.00 -1.00  1.00 -1.00 -1.00  1.00  1.00 -1.00  1.00 -1.00 -1.00  1.00
E_1g   2.00  1.00 -1.00 -2.00  0.00  0.00  2.00  1.00 -1.00 -2.00  0.00  0.00
E_2g   2.00 -1.00 -1.00  2.00  0.00  0.00  2.00 -1.00 -1.00  2.00  0.00  0.00
A_1u   1.00  1.00  1.00  1.00  1.00  1.00 -1.00 -1.00 -1.00 -1.00 -1.00 -1.00
A_2u   1.00  1.00  1.00  1.00 -1.00 -1.00 -1.00 -1.00 -1.00 -1.00  1.00  1.00
B_1u   1.00 -1.00  1.00 -1.00  1.00 -1.00 -1.00  1.00 -1.00  1.00 -1.00  1.00
B_2u   1.00 -1.00  1.00 -1.00 -1.00  1.00 -1.00  1.00 -1.00  1.00  1.00 -1.00
E_1u   2.00  1.00 -1.00 -2.00  0.00  0.00 -2.00 -1.00  1.00  2.00  0.00  0.00
E_2u   2.00 -1.00 -1.00  2.00  0.00  0.00 -2.00  1.00  1.00 -2.00  0.00  0.00

     the symmetry operations in each class and the name of the first element:

     E        1
                                                                 
     2C6      5    6
                                                                 
     2C3      7    8
                                                                 
     C2       2
                                                                 
     3C2'     4   12   11
                                                                 
     3C2''    3    9   10
                                                                 
     i       13
                                                                 
     2S3     17   18
                                                                 
     2S6     19   20
                                                                 
     s_h     14
                                                                 
     3s_d    16   24   23
                                                                 
     3s_v    15   21   22
                                                                 

     Band symmetry, D_6h(6/mmm) point group:

     e(  1 -  1) =    -21.61459  eV     1   --> A_1g           
     e(  2 -  2) =     -9.78989  eV     1   --> A_2u           
     e(  3 -  4) =     -5.63707  eV     2   --> E_2g           
     e(  5 -  5) =      0.81262  eV     1   --> A_1g           
     e(  6 -  6) =      1.46983  eV     1   --> A_2u           
     e(  7 -  7) =      1.59973  eV     1   --> A_1g           
     e(  8 -  8) =      2.61151  eV     1   --> A_2u           

 **************************************************************************

     BANDS        :   1m55.18s CPU   2m44.66s WALL


   This run was terminated on:  11:48:57   5Aug2023            

=------------------------------------------------------------------------------=
   JOB DONE.
=------------------------------------------------------------------------------=
