
     Program PWSCF v.6.7MaX starts on 28Aug2023 at 19:44:13 

     This program is part of the open-source Quantum ESPRESSO suite
     for quantum simulation of materials; please cite
         "P. Giannozzi et al., J. Phys.:Condens. Matter 21 395502 (2009);
         "P. Giannozzi et al., J. Phys.:Condens. Matter 29 465901 (2017);
          URL http://www.quantum-espresso.org", 
     in publications or presentations arising from this work. More details at
     http://www.quantum-espresso.org/quote

     Parallel version (MPI), running on     2 processors

     MPI processes distributed on     1 nodes
     R & G space division:  proc/nbgrp/npool/nimage =       2
     Waiting for input...
     Reading input from standard input

     Current dimensions of program PWSCF are:
     Max number of different atomic species (ntypx) = 10
     Max number of k-points (npk) =  40000
     Max angular momentum in pseudopotentials (lmaxx) =  3

     Atomic positions and unit cell read from directory:
     ./tmp/graphene1.save/
     Atomic positions from file used, from input discarded

     file C.pbe-n-kjpaw_psl.1.0.0.UPF: wavefunction(s)  2S 2P renormalized

     Subspace diagonalization in iterative solution of the eigenvalue problem:
     a serial algorithm will be used


     Parallelization info
     --------------------
     sticks:   dense  smooth     PW     G-vecs:    dense   smooth      PW
     Min         312     312     93                49878    49878    8039
     Max         313     313     94                49891    49891    8058
     Sum         625     625    187                99769    99769   16097



     bravais-lattice index     =           12
     lattice parameter (alat)  =       4.7546  a.u.
     unit-cell volume          =     739.9093 (a.u.)^3
     number of atoms/cell      =            2
     number of atomic types    =            1
     number of electrons       =         8.00
     number of Kohn-Sham states=            8
     kinetic-energy cutoff     =     100.0000  Ry
     charge density cutoff     =     400.0000  Ry
     Exchange-correlation= SLA  PW   PBX  PBC
                           (   1   4   3   4   0   0   0)

     celldm(1)=   4.754551  celldm(2)=   1.000000  celldm(3)=   7.949126
     celldm(4)=  -0.500000  celldm(5)=   0.000000  celldm(6)=   0.000000

     crystal axes: (cart. coord. in units of alat)
               a(1) = (   1.000000   0.000000   0.000000 )  
               a(2) = (  -0.500000   0.866025   0.000000 )  
               a(3) = (   0.000000   0.000000   7.949126 )  

     reciprocal axes: (cart. coord. in units 2 pi/alat)
               b(1) = (  1.000000  0.577350 -0.000000 )  
               b(2) = (  0.000000  1.154701  0.000000 )  
               b(3) = (  0.000000 -0.000000  0.125800 )  


     PseudoPot. # 1 for C  read from file:
     ./Pseudo/C.pbe-n-kjpaw_psl.1.0.0.UPF
     MD5 check sum: ecdf03482cb4269f2fcfa842d572f30f
     Pseudo is Projector augmented-wave + core cor, Zval =  4.0
     Generated using &quot;atomic&quot; code by A. Dal Corso  v.6.3
     Shape of augmentation charge: PSQ
     Using radial grid of 1073 points,  4 beta functions with: 
                l(1) =   0
                l(2) =   0
                l(3) =   1
                l(4) =   1
     Q(r) pseudized with 0 coefficients 


     atomic species   valence    mass     pseudopotential
        C              4.00    12.01070     C ( 1.00)

     24 Sym. Ops., with inversion, found (18 have fractional translation)


                                    s                        frac. trans.

      isym =  1     identity                                     

 cryst.   s( 1) = (     1          0          0      )
                  (     0          1          0      )
                  (     0          0          1      )

 cart.    s( 1) = (  1.0000000  0.0000000  0.0000000 )
                  (  0.0000000  1.0000000  0.0000000 )
                  (  0.0000000  0.0000000  1.0000000 )


      isym =  2     180 deg rotation - cart. axis [0,0,1]        

 cryst.   s( 2) = (    -1          0          0      )    f =( -0.3333333 )
                  (     0         -1          0      )       (  0.3333333 )
                  (     0          0          1      )       (  0.0000000 )

 cart.    s( 2) = ( -1.0000000  0.0000000  0.0000000 )    f =( -0.5000000 )
                  (  0.0000000 -1.0000000  0.0000000 )       (  0.2886751 )
                  (  0.0000000  0.0000000  1.0000000 )       (  0.0000000 )


      isym =  3     180 deg rotation - cart. axis [0,1,0]        

 cryst.   s( 3) = (    -1          0          0      )    f =(  0.0000000 )
                  (     1          1          0      )       (  0.0000000 )
                  (     0          0         -1      )       (  0.5000000 )

 cart.    s( 3) = ( -1.0000000  0.0000000  0.0000000 )    f =(  0.0000000 )
                  (  0.0000000  1.0000000  0.0000000 )       (  0.0000000 )
                  (  0.0000000  0.0000000 -1.0000000 )       (  3.9745628 )


      isym =  4     180 deg rotation - cart. axis [1,0,0]        

 cryst.   s( 4) = (     1          0          0      )    f =( -0.3333333 )
                  (    -1         -1          0      )       (  0.3333333 )
                  (     0          0         -1      )       (  0.5000000 )

 cart.    s( 4) = (  1.0000000  0.0000000  0.0000000 )    f =( -0.5000000 )
                  (  0.0000000 -1.0000000  0.0000000 )       (  0.2886751 )
                  (  0.0000000  0.0000000 -1.0000000 )       (  3.9745628 )


      isym =  5      60 deg rotation - cryst. axis [0,0,1]       

 cryst.   s( 5) = (     1          1          0      )    f =( -0.3333333 )
                  (    -1          0          0      )       (  0.3333333 )
                  (     0          0          1      )       (  0.0000000 )

 cart.    s( 5) = (  0.5000000 -0.8660254  0.0000000 )    f =( -0.5000000 )
                  (  0.8660254  0.5000000  0.0000000 )       (  0.2886751 )
                  (  0.0000000  0.0000000  1.0000000 )       (  0.0000000 )


      isym =  6      60 deg rotation - cryst. axis [0,0,-1]      

 cryst.   s( 6) = (     0         -1          0      )    f =( -0.3333333 )
                  (     1          1          0      )       (  0.3333333 )
                  (     0          0          1      )       (  0.0000000 )

 cart.    s( 6) = (  0.5000000  0.8660254  0.0000000 )    f =( -0.5000000 )
                  ( -0.8660254  0.5000000  0.0000000 )       (  0.2886751 )
                  (  0.0000000  0.0000000  1.0000000 )       (  0.0000000 )


      isym =  7     120 deg rotation - cryst. axis [0,0,1]       

 cryst.   s( 7) = (     0          1          0      )
                  (    -1         -1          0      )
                  (     0          0          1      )

 cart.    s( 7) = ( -0.5000000 -0.8660254  0.0000000 )
                  (  0.8660254 -0.5000000  0.0000000 )
                  (  0.0000000  0.0000000  1.0000000 )


      isym =  8     120 deg rotation - cryst. axis [0,0,-1]      

 cryst.   s( 8) = (    -1         -1          0      )
                  (     1          0          0      )
                  (     0          0          1      )

 cart.    s( 8) = ( -0.5000000  0.8660254  0.0000000 )
                  ( -0.8660254 -0.5000000  0.0000000 )
                  (  0.0000000  0.0000000  1.0000000 )


      isym =  9     180 deg rotation - cryst. axis [1,-1,0]      

 cryst.   s( 9) = (     0         -1          0      )    f =(  0.0000000 )
                  (    -1          0          0      )       (  0.0000000 )
                  (     0          0         -1      )       (  0.5000000 )

 cart.    s( 9) = (  0.5000000 -0.8660254  0.0000000 )    f =(  0.0000000 )
                  ( -0.8660254 -0.5000000  0.0000000 )       (  0.0000000 )
                  (  0.0000000  0.0000000 -1.0000000 )       (  3.9745628 )


      isym = 10     180 deg rotation - cryst. axis [2,1,0]       

 cryst.   s(10) = (     1          1          0      )    f =(  0.0000000 )
                  (     0         -1          0      )       (  0.0000000 )
                  (     0          0         -1      )       (  0.5000000 )

 cart.    s(10) = (  0.5000000  0.8660254  0.0000000 )    f =(  0.0000000 )
                  (  0.8660254 -0.5000000  0.0000000 )       (  0.0000000 )
                  (  0.0000000  0.0000000 -1.0000000 )       (  3.9745628 )


      isym = 11     180 deg rotation - cryst. axis [0,1,0]       

 cryst.   s(11) = (    -1         -1          0      )    f =( -0.3333333 )
                  (     0          1          0      )       (  0.3333333 )
                  (     0          0         -1      )       (  0.5000000 )

 cart.    s(11) = ( -0.5000000 -0.8660254  0.0000000 )    f =( -0.5000000 )
                  ( -0.8660254  0.5000000  0.0000000 )       (  0.2886751 )
                  (  0.0000000  0.0000000 -1.0000000 )       (  3.9745628 )


      isym = 12     180 deg rotation - cryst. axis [1,1,0]       

 cryst.   s(12) = (     0          1          0      )    f =( -0.3333333 )
                  (     1          0          0      )       (  0.3333333 )
                  (     0          0         -1      )       (  0.5000000 )

 cart.    s(12) = ( -0.5000000  0.8660254  0.0000000 )    f =( -0.5000000 )
                  (  0.8660254  0.5000000  0.0000000 )       (  0.2886751 )
                  (  0.0000000  0.0000000 -1.0000000 )       (  3.9745628 )


      isym = 13     inversion                                    

 cryst.   s(13) = (    -1          0          0      )    f =( -0.3333333 )
                  (     0         -1          0      )       (  0.3333333 )
                  (     0          0         -1      )       (  0.5000000 )

 cart.    s(13) = ( -1.0000000  0.0000000  0.0000000 )    f =( -0.5000000 )
                  (  0.0000000 -1.0000000  0.0000000 )       (  0.2886751 )
                  (  0.0000000  0.0000000 -1.0000000 )       (  3.9745628 )


      isym = 14     inv. 180 deg rotation - cart. axis [0,0,1]   

 cryst.   s(14) = (     1          0          0      )    f =(  0.0000000 )
                  (     0          1          0      )       (  0.0000000 )
                  (     0          0         -1      )       (  0.5000000 )

 cart.    s(14) = (  1.0000000  0.0000000  0.0000000 )    f =(  0.0000000 )
                  (  0.0000000  1.0000000  0.0000000 )       (  0.0000000 )
                  (  0.0000000  0.0000000 -1.0000000 )       (  3.9745628 )


      isym = 15     inv. 180 deg rotation - cart. axis [0,1,0]   

 cryst.   s(15) = (     1          0          0      )    f =( -0.3333333 )
                  (    -1         -1          0      )       (  0.3333333 )
                  (     0          0          1      )       (  0.0000000 )

 cart.    s(15) = (  1.0000000  0.0000000  0.0000000 )    f =( -0.5000000 )
                  (  0.0000000 -1.0000000  0.0000000 )       (  0.2886751 )
                  (  0.0000000  0.0000000  1.0000000 )       (  0.0000000 )


      isym = 16     inv. 180 deg rotation - cart. axis [1,0,0]   

 cryst.   s(16) = (    -1          0          0      )
                  (     1          1          0      )
                  (     0          0          1      )

 cart.    s(16) = ( -1.0000000  0.0000000  0.0000000 )
                  (  0.0000000  1.0000000  0.0000000 )
                  (  0.0000000  0.0000000  1.0000000 )


      isym = 17     inv.  60 deg rotation - cryst. axis [0,0,1]  

 cryst.   s(17) = (    -1         -1          0      )    f =(  0.0000000 )
                  (     1          0          0      )       (  0.0000000 )
                  (     0          0         -1      )       (  0.5000000 )

 cart.    s(17) = ( -0.5000000  0.8660254  0.0000000 )    f =(  0.0000000 )
                  ( -0.8660254 -0.5000000  0.0000000 )       (  0.0000000 )
                  (  0.0000000  0.0000000 -1.0000000 )       (  3.9745628 )


      isym = 18     inv.  60 deg rotation - cryst. axis [0,0,-1] 

 cryst.   s(18) = (     0          1          0      )    f =(  0.0000000 )
                  (    -1         -1          0      )       (  0.0000000 )
                  (     0          0         -1      )       (  0.5000000 )

 cart.    s(18) = ( -0.5000000 -0.8660254  0.0000000 )    f =(  0.0000000 )
                  (  0.8660254 -0.5000000  0.0000000 )       (  0.0000000 )
                  (  0.0000000  0.0000000 -1.0000000 )       (  3.9745628 )


      isym = 19     inv. 120 deg rotation - cryst. axis [0,0,1]  

 cryst.   s(19) = (     0         -1          0      )    f =( -0.3333333 )
                  (     1          1          0      )       (  0.3333333 )
                  (     0          0         -1      )       (  0.5000000 )

 cart.    s(19) = (  0.5000000  0.8660254  0.0000000 )    f =( -0.5000000 )
                  ( -0.8660254  0.5000000  0.0000000 )       (  0.2886751 )
                  (  0.0000000  0.0000000 -1.0000000 )       (  3.9745628 )


      isym = 20     inv. 120 deg rotation - cryst. axis [0,0,-1] 

 cryst.   s(20) = (     1          1          0      )    f =( -0.3333333 )
                  (    -1          0          0      )       (  0.3333333 )
                  (     0          0         -1      )       (  0.5000000 )

 cart.    s(20) = (  0.5000000 -0.8660254  0.0000000 )    f =( -0.5000000 )
                  (  0.8660254  0.5000000  0.0000000 )       (  0.2886751 )
                  (  0.0000000  0.0000000 -1.0000000 )       (  3.9745628 )


      isym = 21     inv. 180 deg rotation - cryst. axis [1,-1,0] 

 cryst.   s(21) = (     0          1          0      )    f =( -0.3333333 )
                  (     1          0          0      )       (  0.3333333 )
                  (     0          0          1      )       (  0.0000000 )

 cart.    s(21) = ( -0.5000000  0.8660254  0.0000000 )    f =( -0.5000000 )
                  (  0.8660254  0.5000000  0.0000000 )       (  0.2886751 )
                  (  0.0000000  0.0000000  1.0000000 )       (  0.0000000 )


      isym = 22     inv. 180 deg rotation - cryst. axis [2,1,0]  

 cryst.   s(22) = (    -1         -1          0      )    f =( -0.3333333 )
                  (     0          1          0      )       (  0.3333333 )
                  (     0          0          1      )       (  0.0000000 )

 cart.    s(22) = ( -0.5000000 -0.8660254  0.0000000 )    f =( -0.5000000 )
                  ( -0.8660254  0.5000000  0.0000000 )       (  0.2886751 )
                  (  0.0000000  0.0000000  1.0000000 )       (  0.0000000 )


      isym = 23     inv. 180 deg rotation - cryst. axis [0,1,0]  

 cryst.   s(23) = (     1          1          0      )
                  (     0         -1          0      )
                  (     0          0          1      )

 cart.    s(23) = (  0.5000000  0.8660254  0.0000000 )
                  (  0.8660254 -0.5000000  0.0000000 )
                  (  0.0000000  0.0000000  1.0000000 )


      isym = 24     inv. 180 deg rotation - cryst. axis [1,1,0]  

 cryst.   s(24) = (     0         -1          0      )
                  (    -1          0          0      )
                  (     0          0          1      )

 cart.    s(24) = (  0.5000000 -0.8660254  0.0000000 )
                  ( -0.8660254 -0.5000000  0.0000000 )
                  (  0.0000000  0.0000000  1.0000000 )


     point group D_6h(6/mmm)
     there are 12 classes
     the character table:

       E     2C6   2C3   C2    3C2'  3C2'' i     2S3   2S6   s_h   3s_d  3s_v 
A_1g   1.00  1.00  1.00  1.00  1.00  1.00  1.00  1.00  1.00  1.00  1.00  1.00
A_2g   1.00  1.00  1.00  1.00 -1.00 -1.00  1.00  1.00  1.00  1.00 -1.00 -1.00
B_1g   1.00 -1.00  1.00 -1.00  1.00 -1.00  1.00 -1.00  1.00 -1.00  1.00 -1.00
B_2g   1.00 -1.00  1.00 -1.00 -1.00  1.00  1.00 -1.00  1.00 -1.00 -1.00  1.00
E_1g   2.00  1.00 -1.00 -2.00  0.00  0.00  2.00  1.00 -1.00 -2.00  0.00  0.00
E_2g   2.00 -1.00 -1.00  2.00  0.00  0.00  2.00 -1.00 -1.00  2.00  0.00  0.00
A_1u   1.00  1.00  1.00  1.00  1.00  1.00 -1.00 -1.00 -1.00 -1.00 -1.00 -1.00
A_2u   1.00  1.00  1.00  1.00 -1.00 -1.00 -1.00 -1.00 -1.00 -1.00  1.00  1.00
B_1u   1.00 -1.00  1.00 -1.00  1.00 -1.00 -1.00  1.00 -1.00  1.00 -1.00  1.00
B_2u   1.00 -1.00  1.00 -1.00 -1.00  1.00 -1.00  1.00 -1.00  1.00  1.00 -1.00
E_1u   2.00  1.00 -1.00 -2.00  0.00  0.00 -2.00 -1.00  1.00  2.00  0.00  0.00
E_2u   2.00 -1.00 -1.00  2.00  0.00  0.00 -2.00  1.00  1.00 -2.00  0.00  0.00

     the symmetry operations in each class and the name of the first element:

     E        1
          identity                                               
     2C6      5    6
           60 deg rotation - cryst. axis [0,0,1]                 
     2C3      7    8
          120 deg rotation - cryst. axis [0,0,1]                 
     C2       2
          180 deg rotation - cart. axis [0,0,1]                  
     3C2'     4   12   11
          180 deg rotation - cart. axis [1,0,0]                  
     3C2''    3    9   10
          180 deg rotation - cart. axis [0,1,0]                  
     i       13
          inversion                                              
     2S3     17   18
          inv.  60 deg rotation - cryst. axis [0,0,1]            
     2S6     19   20
          inv. 120 deg rotation - cryst. axis [0,0,1]            
     s_h     14
          inv. 180 deg rotation - cart. axis [0,0,1]             
     3s_d    16   24   23
          inv. 180 deg rotation - cart. axis [1,0,0]             
     3s_v    15   21   22
          inv. 180 deg rotation - cart. axis [0,1,0]             

   Cartesian axes

     site n.     atom                  positions (alat units)
         1           C   tau(   1) = (   0.0000000   0.0000000   1.9872814  )
         2           C   tau(   2) = (  -0.0000000   0.5773503   1.9872814  )

   Crystallographic axes

     site n.     atom                  positions (cryst. coord.)
         1           C   tau(   1) = (  0.0000000  0.0000000  0.2500000  )
         2           C   tau(   2) = (  0.3333333  0.6666667  0.2500000  )

     number of k points=   217 (tetrahedron method)
                       cart. coord. in units 2pi/alat
        k(    1) = (   0.0000000   0.0000000   0.0000000), wk =   0.0008681
        k(    2) = (   0.0000000   0.0240563   0.0000000), wk =   0.0052083
        k(    3) = (   0.0000000   0.0481125   0.0000000), wk =   0.0052083
        k(    4) = (   0.0000000   0.0721688   0.0000000), wk =   0.0052083
        k(    5) = (   0.0000000   0.0962250   0.0000000), wk =   0.0052083
        k(    6) = (   0.0000000   0.1202813   0.0000000), wk =   0.0052083
        k(    7) = (   0.0000000   0.1443376   0.0000000), wk =   0.0052083
        k(    8) = (   0.0000000   0.1683938   0.0000000), wk =   0.0052083
        k(    9) = (   0.0000000   0.1924501   0.0000000), wk =   0.0052083
        k(   10) = (   0.0000000   0.2165064   0.0000000), wk =   0.0052083
        k(   11) = (   0.0000000   0.2405626   0.0000000), wk =   0.0052083
        k(   12) = (   0.0000000   0.2646189   0.0000000), wk =   0.0052083
        k(   13) = (   0.0000000   0.2886751   0.0000000), wk =   0.0052083
        k(   14) = (   0.0000000   0.3127314   0.0000000), wk =   0.0052083
        k(   15) = (   0.0000000   0.3367877   0.0000000), wk =   0.0052083
        k(   16) = (   0.0000000   0.3608439   0.0000000), wk =   0.0052083
        k(   17) = (   0.0000000   0.3849002   0.0000000), wk =   0.0052083
        k(   18) = (   0.0000000   0.4089564   0.0000000), wk =   0.0052083
        k(   19) = (   0.0000000   0.4330127   0.0000000), wk =   0.0052083
        k(   20) = (   0.0000000   0.4570690   0.0000000), wk =   0.0052083
        k(   21) = (   0.0000000   0.4811252   0.0000000), wk =   0.0052083
        k(   22) = (   0.0000000   0.5051815   0.0000000), wk =   0.0052083
        k(   23) = (   0.0000000   0.5292377   0.0000000), wk =   0.0052083
        k(   24) = (   0.0000000   0.5532940   0.0000000), wk =   0.0052083
        k(   25) = (   0.0000000  -0.5773503   0.0000000), wk =   0.0026042
        k(   26) = (   0.0208333   0.0360844   0.0000000), wk =   0.0052083
        k(   27) = (   0.0208333   0.0601407   0.0000000), wk =   0.0104167
        k(   28) = (   0.0208333   0.0841969   0.0000000), wk =   0.0104167
        k(   29) = (   0.0208333   0.1082532   0.0000000), wk =   0.0104167
        k(   30) = (   0.0208333   0.1323094   0.0000000), wk =   0.0104167
        k(   31) = (   0.0208333   0.1563657   0.0000000), wk =   0.0104167
        k(   32) = (   0.0208333   0.1804220   0.0000000), wk =   0.0104167
        k(   33) = (   0.0208333   0.2044782   0.0000000), wk =   0.0104167
        k(   34) = (   0.0208333   0.2285345   0.0000000), wk =   0.0104167
        k(   35) = (   0.0208333   0.2525907   0.0000000), wk =   0.0104167
        k(   36) = (   0.0208333   0.2766470   0.0000000), wk =   0.0104167
        k(   37) = (   0.0208333   0.3007033   0.0000000), wk =   0.0104167
        k(   38) = (   0.0208333   0.3247595   0.0000000), wk =   0.0104167
        k(   39) = (   0.0208333   0.3488158   0.0000000), wk =   0.0104167
        k(   40) = (   0.0208333   0.3728720   0.0000000), wk =   0.0104167
        k(   41) = (   0.0208333   0.3969283   0.0000000), wk =   0.0104167
        k(   42) = (   0.0208333   0.4209846   0.0000000), wk =   0.0104167
        k(   43) = (   0.0208333   0.4450408   0.0000000), wk =   0.0104167
        k(   44) = (   0.0208333   0.4690971   0.0000000), wk =   0.0104167
        k(   45) = (   0.0208333   0.4931534   0.0000000), wk =   0.0104167
        k(   46) = (   0.0208333   0.5172096   0.0000000), wk =   0.0104167
        k(   47) = (   0.0208333   0.5412659   0.0000000), wk =   0.0104167
        k(   48) = (   0.0208333   0.5653221   0.0000000), wk =   0.0104167
        k(   49) = (   0.0416667   0.0721688   0.0000000), wk =   0.0052083
        k(   50) = (   0.0416667   0.0962250   0.0000000), wk =   0.0104167
        k(   51) = (   0.0416667   0.1202813   0.0000000), wk =   0.0104167
        k(   52) = (   0.0416667   0.1443376   0.0000000), wk =   0.0104167
        k(   53) = (   0.0416667   0.1683938   0.0000000), wk =   0.0104167
        k(   54) = (   0.0416667   0.1924501   0.0000000), wk =   0.0104167
        k(   55) = (   0.0416667   0.2165064   0.0000000), wk =   0.0104167
        k(   56) = (   0.0416667   0.2405626   0.0000000), wk =   0.0104167
        k(   57) = (   0.0416667   0.2646189   0.0000000), wk =   0.0104167
        k(   58) = (   0.0416667   0.2886751   0.0000000), wk =   0.0104167
        k(   59) = (   0.0416667   0.3127314   0.0000000), wk =   0.0104167
        k(   60) = (   0.0416667   0.3367877   0.0000000), wk =   0.0104167
        k(   61) = (   0.0416667   0.3608439   0.0000000), wk =   0.0104167
        k(   62) = (   0.0416667   0.3849002   0.0000000), wk =   0.0104167
        k(   63) = (   0.0416667   0.4089564   0.0000000), wk =   0.0104167
        k(   64) = (   0.0416667   0.4330127   0.0000000), wk =   0.0104167
        k(   65) = (   0.0416667   0.4570690   0.0000000), wk =   0.0104167
        k(   66) = (   0.0416667   0.4811252   0.0000000), wk =   0.0104167
        k(   67) = (   0.0416667   0.5051815   0.0000000), wk =   0.0104167
        k(   68) = (   0.0416667   0.5292377   0.0000000), wk =   0.0104167
        k(   69) = (   0.0416667   0.5532940   0.0000000), wk =   0.0104167
        k(   70) = (   0.0416667   0.5773503   0.0000000), wk =   0.0052083
        k(   71) = (   0.0625000   0.1082532   0.0000000), wk =   0.0052083
        k(   72) = (   0.0625000   0.1323094   0.0000000), wk =   0.0104167
        k(   73) = (   0.0625000   0.1563657   0.0000000), wk =   0.0104167
        k(   74) = (   0.0625000   0.1804220   0.0000000), wk =   0.0104167
        k(   75) = (   0.0625000   0.2044782   0.0000000), wk =   0.0104167
        k(   76) = (   0.0625000   0.2285345   0.0000000), wk =   0.0104167
        k(   77) = (   0.0625000   0.2525907   0.0000000), wk =   0.0104167
        k(   78) = (   0.0625000   0.2766470   0.0000000), wk =   0.0104167
        k(   79) = (   0.0625000   0.3007033   0.0000000), wk =   0.0104167
        k(   80) = (   0.0625000   0.3247595   0.0000000), wk =   0.0104167
        k(   81) = (   0.0625000   0.3488158   0.0000000), wk =   0.0104167
        k(   82) = (   0.0625000   0.3728720   0.0000000), wk =   0.0104167
        k(   83) = (   0.0625000   0.3969283   0.0000000), wk =   0.0104167
        k(   84) = (   0.0625000   0.4209846   0.0000000), wk =   0.0104167
        k(   85) = (   0.0625000   0.4450408   0.0000000), wk =   0.0104167
        k(   86) = (   0.0625000   0.4690971   0.0000000), wk =   0.0104167
        k(   87) = (   0.0625000   0.4931534   0.0000000), wk =   0.0104167
        k(   88) = (   0.0625000   0.5172096   0.0000000), wk =   0.0104167
        k(   89) = (   0.0625000   0.5412659   0.0000000), wk =   0.0104167
        k(   90) = (   0.0625000   0.5653221   0.0000000), wk =   0.0104167
        k(   91) = (   0.0833333   0.1443376   0.0000000), wk =   0.0052083
        k(   92) = (   0.0833333   0.1683938   0.0000000), wk =   0.0104167
        k(   93) = (   0.0833333   0.1924501   0.0000000), wk =   0.0104167
        k(   94) = (   0.0833333   0.2165064   0.0000000), wk =   0.0104167
        k(   95) = (   0.0833333   0.2405626   0.0000000), wk =   0.0104167
        k(   96) = (   0.0833333   0.2646189   0.0000000), wk =   0.0104167
        k(   97) = (   0.0833333   0.2886751   0.0000000), wk =   0.0104167
        k(   98) = (   0.0833333   0.3127314   0.0000000), wk =   0.0104167
        k(   99) = (   0.0833333   0.3367877   0.0000000), wk =   0.0104167
        k(  100) = (   0.0833333   0.3608439   0.0000000), wk =   0.0104167
        k(  101) = (   0.0833333   0.3849002   0.0000000), wk =   0.0104167
        k(  102) = (   0.0833333   0.4089564   0.0000000), wk =   0.0104167
        k(  103) = (   0.0833333   0.4330127   0.0000000), wk =   0.0104167
        k(  104) = (   0.0833333   0.4570690   0.0000000), wk =   0.0104167
        k(  105) = (   0.0833333   0.4811252   0.0000000), wk =   0.0104167
        k(  106) = (   0.0833333   0.5051815   0.0000000), wk =   0.0104167
        k(  107) = (   0.0833333   0.5292377   0.0000000), wk =   0.0104167
        k(  108) = (   0.0833333   0.5532940   0.0000000), wk =   0.0104167
        k(  109) = (   0.0833333   0.5773503   0.0000000), wk =   0.0052083
        k(  110) = (   0.1041667   0.1804220   0.0000000), wk =   0.0052083
        k(  111) = (   0.1041667   0.2044782   0.0000000), wk =   0.0104167
        k(  112) = (   0.1041667   0.2285345   0.0000000), wk =   0.0104167
        k(  113) = (   0.1041667   0.2525907   0.0000000), wk =   0.0104167
        k(  114) = (   0.1041667   0.2766470   0.0000000), wk =   0.0104167
        k(  115) = (   0.1041667   0.3007033   0.0000000), wk =   0.0104167
        k(  116) = (   0.1041667   0.3247595   0.0000000), wk =   0.0104167
        k(  117) = (   0.1041667   0.3488158   0.0000000), wk =   0.0104167
        k(  118) = (   0.1041667   0.3728720   0.0000000), wk =   0.0104167
        k(  119) = (   0.1041667   0.3969283   0.0000000), wk =   0.0104167
        k(  120) = (   0.1041667   0.4209846   0.0000000), wk =   0.0104167
        k(  121) = (   0.1041667   0.4450408   0.0000000), wk =   0.0104167
        k(  122) = (   0.1041667   0.4690971   0.0000000), wk =   0.0104167
        k(  123) = (   0.1041667   0.4931534   0.0000000), wk =   0.0104167
        k(  124) = (   0.1041667   0.5172096   0.0000000), wk =   0.0104167
        k(  125) = (   0.1041667   0.5412659   0.0000000), wk =   0.0104167
        k(  126) = (   0.1041667   0.5653221   0.0000000), wk =   0.0104167
        k(  127) = (   0.1250000   0.2165064   0.0000000), wk =   0.0052083
        k(  128) = (   0.1250000   0.2405626   0.0000000), wk =   0.0104167
        k(  129) = (   0.1250000   0.2646189   0.0000000), wk =   0.0104167
        k(  130) = (   0.1250000   0.2886751   0.0000000), wk =   0.0104167
        k(  131) = (   0.1250000   0.3127314   0.0000000), wk =   0.0104167
        k(  132) = (   0.1250000   0.3367877   0.0000000), wk =   0.0104167
        k(  133) = (   0.1250000   0.3608439   0.0000000), wk =   0.0104167
        k(  134) = (   0.1250000   0.3849002   0.0000000), wk =   0.0104167
        k(  135) = (   0.1250000   0.4089564   0.0000000), wk =   0.0104167
        k(  136) = (   0.1250000   0.4330127   0.0000000), wk =   0.0104167
        k(  137) = (   0.1250000   0.4570690   0.0000000), wk =   0.0104167
        k(  138) = (   0.1250000   0.4811252   0.0000000), wk =   0.0104167
        k(  139) = (   0.1250000   0.5051815   0.0000000), wk =   0.0104167
        k(  140) = (   0.1250000   0.5292377   0.0000000), wk =   0.0104167
        k(  141) = (   0.1250000   0.5532940   0.0000000), wk =   0.0104167
        k(  142) = (   0.1250000   0.5773503   0.0000000), wk =   0.0052083
        k(  143) = (   0.1458333   0.2525907   0.0000000), wk =   0.0052083
        k(  144) = (   0.1458333   0.2766470   0.0000000), wk =   0.0104167
        k(  145) = (   0.1458333   0.3007033   0.0000000), wk =   0.0104167
        k(  146) = (   0.1458333   0.3247595   0.0000000), wk =   0.0104167
        k(  147) = (   0.1458333   0.3488158   0.0000000), wk =   0.0104167
        k(  148) = (   0.1458333   0.3728720   0.0000000), wk =   0.0104167
        k(  149) = (   0.1458333   0.3969283   0.0000000), wk =   0.0104167
        k(  150) = (   0.1458333   0.4209846   0.0000000), wk =   0.0104167
        k(  151) = (   0.1458333   0.4450408   0.0000000), wk =   0.0104167
        k(  152) = (   0.1458333   0.4690971   0.0000000), wk =   0.0104167
        k(  153) = (   0.1458333   0.4931534   0.0000000), wk =   0.0104167
        k(  154) = (   0.1458333   0.5172096   0.0000000), wk =   0.0104167
        k(  155) = (   0.1458333   0.5412659   0.0000000), wk =   0.0104167
        k(  156) = (   0.1458333   0.5653221   0.0000000), wk =   0.0104167
        k(  157) = (   0.1666667   0.2886751   0.0000000), wk =   0.0052083
        k(  158) = (   0.1666667   0.3127314   0.0000000), wk =   0.0104167
        k(  159) = (   0.1666667   0.3367877   0.0000000), wk =   0.0104167
        k(  160) = (   0.1666667   0.3608439   0.0000000), wk =   0.0104167
        k(  161) = (   0.1666667   0.3849002   0.0000000), wk =   0.0104167
        k(  162) = (   0.1666667   0.4089564   0.0000000), wk =   0.0104167
        k(  163) = (   0.1666667   0.4330127   0.0000000), wk =   0.0104167
        k(  164) = (   0.1666667   0.4570690   0.0000000), wk =   0.0104167
        k(  165) = (   0.1666667   0.4811252   0.0000000), wk =   0.0104167
        k(  166) = (   0.1666667   0.5051815   0.0000000), wk =   0.0104167
        k(  167) = (   0.1666667   0.5292377   0.0000000), wk =   0.0104167
        k(  168) = (   0.1666667   0.5532940   0.0000000), wk =   0.0104167
        k(  169) = (   0.1666667   0.5773503   0.0000000), wk =   0.0052083
        k(  170) = (   0.1875000   0.3247595   0.0000000), wk =   0.0052083
        k(  171) = (   0.1875000   0.3488158   0.0000000), wk =   0.0104167
        k(  172) = (   0.1875000   0.3728720   0.0000000), wk =   0.0104167
        k(  173) = (   0.1875000   0.3969283   0.0000000), wk =   0.0104167
        k(  174) = (   0.1875000   0.4209846   0.0000000), wk =   0.0104167
        k(  175) = (   0.1875000   0.4450408   0.0000000), wk =   0.0104167
        k(  176) = (   0.1875000   0.4690971   0.0000000), wk =   0.0104167
        k(  177) = (   0.1875000   0.4931534   0.0000000), wk =   0.0104167
        k(  178) = (   0.1875000   0.5172096   0.0000000), wk =   0.0104167
        k(  179) = (   0.1875000   0.5412659   0.0000000), wk =   0.0104167
        k(  180) = (   0.1875000   0.5653221   0.0000000), wk =   0.0104167
        k(  181) = (   0.2083333   0.3608439   0.0000000), wk =   0.0052083
        k(  182) = (   0.2083333   0.3849002   0.0000000), wk =   0.0104167
        k(  183) = (   0.2083333   0.4089564   0.0000000), wk =   0.0104167
        k(  184) = (   0.2083333   0.4330127   0.0000000), wk =   0.0104167
        k(  185) = (   0.2083333   0.4570690   0.0000000), wk =   0.0104167
        k(  186) = (   0.2083333   0.4811252   0.0000000), wk =   0.0104167
        k(  187) = (   0.2083333   0.5051815   0.0000000), wk =   0.0104167
        k(  188) = (   0.2083333   0.5292377   0.0000000), wk =   0.0104167
        k(  189) = (   0.2083333   0.5532940   0.0000000), wk =   0.0104167
        k(  190) = (   0.2083333   0.5773503   0.0000000), wk =   0.0052083
        k(  191) = (   0.2291667   0.3969283   0.0000000), wk =   0.0052083
        k(  192) = (   0.2291667   0.4209846   0.0000000), wk =   0.0104167
        k(  193) = (   0.2291667   0.4450408   0.0000000), wk =   0.0104167
        k(  194) = (   0.2291667   0.4690971   0.0000000), wk =   0.0104167
        k(  195) = (   0.2291667   0.4931534   0.0000000), wk =   0.0104167
        k(  196) = (   0.2291667   0.5172096   0.0000000), wk =   0.0104167
        k(  197) = (   0.2291667   0.5412659   0.0000000), wk =   0.0104167
        k(  198) = (   0.2291667   0.5653221   0.0000000), wk =   0.0104167
        k(  199) = (   0.2500000   0.4330127   0.0000000), wk =   0.0052083
        k(  200) = (   0.2500000   0.4570690   0.0000000), wk =   0.0104167
        k(  201) = (   0.2500000   0.4811252   0.0000000), wk =   0.0104167
        k(  202) = (   0.2500000   0.5051815   0.0000000), wk =   0.0104167
        k(  203) = (   0.2500000   0.5292377   0.0000000), wk =   0.0104167
        k(  204) = (   0.2500000   0.5532940   0.0000000), wk =   0.0104167
        k(  205) = (   0.2500000   0.5773503   0.0000000), wk =   0.0052083
        k(  206) = (   0.2708333   0.4690971   0.0000000), wk =   0.0052083
        k(  207) = (   0.2708333   0.4931534   0.0000000), wk =   0.0104167
        k(  208) = (   0.2708333   0.5172096   0.0000000), wk =   0.0104167
        k(  209) = (   0.2708333   0.5412659   0.0000000), wk =   0.0104167
        k(  210) = (   0.2708333   0.5653221   0.0000000), wk =   0.0104167
        k(  211) = (   0.2916667   0.5051815   0.0000000), wk =   0.0052083
        k(  212) = (   0.2916667   0.5292377   0.0000000), wk =   0.0104167
        k(  213) = (   0.2916667   0.5532940   0.0000000), wk =   0.0104167
        k(  214) = (   0.2916667   0.5773503   0.0000000), wk =   0.0052083
        k(  215) = (   0.3125000   0.5412659   0.0000000), wk =   0.0052083
        k(  216) = (   0.3125000   0.5653221   0.0000000), wk =   0.0104167
        k(  217) = (   0.3333333   0.5773503   0.0000000), wk =   0.0017361

                       cryst. coord.
        k(    1) = (   0.0000000   0.0000000   0.0000000), wk =   0.0008681
        k(    2) = (   0.0000000   0.0208333   0.0000000), wk =   0.0052083
        k(    3) = (   0.0000000   0.0416667   0.0000000), wk =   0.0052083
        k(    4) = (   0.0000000   0.0625000   0.0000000), wk =   0.0052083
        k(    5) = (   0.0000000   0.0833333   0.0000000), wk =   0.0052083
        k(    6) = (   0.0000000   0.1041667   0.0000000), wk =   0.0052083
        k(    7) = (   0.0000000   0.1250000   0.0000000), wk =   0.0052083
        k(    8) = (   0.0000000   0.1458333   0.0000000), wk =   0.0052083
        k(    9) = (   0.0000000   0.1666667   0.0000000), wk =   0.0052083
        k(   10) = (   0.0000000   0.1875000   0.0000000), wk =   0.0052083
        k(   11) = (   0.0000000   0.2083333   0.0000000), wk =   0.0052083
        k(   12) = (   0.0000000   0.2291667   0.0000000), wk =   0.0052083
        k(   13) = (   0.0000000   0.2500000   0.0000000), wk =   0.0052083
        k(   14) = (   0.0000000   0.2708333   0.0000000), wk =   0.0052083
        k(   15) = (   0.0000000   0.2916667   0.0000000), wk =   0.0052083
        k(   16) = (   0.0000000   0.3125000   0.0000000), wk =   0.0052083
        k(   17) = (   0.0000000   0.3333333   0.0000000), wk =   0.0052083
        k(   18) = (   0.0000000   0.3541667   0.0000000), wk =   0.0052083
        k(   19) = (   0.0000000   0.3750000   0.0000000), wk =   0.0052083
        k(   20) = (   0.0000000   0.3958333   0.0000000), wk =   0.0052083
        k(   21) = (   0.0000000   0.4166667   0.0000000), wk =   0.0052083
        k(   22) = (   0.0000000   0.4375000   0.0000000), wk =   0.0052083
        k(   23) = (   0.0000000   0.4583333   0.0000000), wk =   0.0052083
        k(   24) = (   0.0000000   0.4791667   0.0000000), wk =   0.0052083
        k(   25) = (   0.0000000  -0.5000000   0.0000000), wk =   0.0026042
        k(   26) = (   0.0208333   0.0208333   0.0000000), wk =   0.0052083
        k(   27) = (   0.0208333   0.0416667   0.0000000), wk =   0.0104167
        k(   28) = (   0.0208333   0.0625000   0.0000000), wk =   0.0104167
        k(   29) = (   0.0208333   0.0833333   0.0000000), wk =   0.0104167
        k(   30) = (   0.0208333   0.1041667   0.0000000), wk =   0.0104167
        k(   31) = (   0.0208333   0.1250000   0.0000000), wk =   0.0104167
        k(   32) = (   0.0208333   0.1458333   0.0000000), wk =   0.0104167
        k(   33) = (   0.0208333   0.1666667   0.0000000), wk =   0.0104167
        k(   34) = (   0.0208333   0.1875000   0.0000000), wk =   0.0104167
        k(   35) = (   0.0208333   0.2083333   0.0000000), wk =   0.0104167
        k(   36) = (   0.0208333   0.2291667   0.0000000), wk =   0.0104167
        k(   37) = (   0.0208333   0.2500000   0.0000000), wk =   0.0104167
        k(   38) = (   0.0208333   0.2708333   0.0000000), wk =   0.0104167
        k(   39) = (   0.0208333   0.2916667   0.0000000), wk =   0.0104167
        k(   40) = (   0.0208333   0.3125000   0.0000000), wk =   0.0104167
        k(   41) = (   0.0208333   0.3333333   0.0000000), wk =   0.0104167
        k(   42) = (   0.0208333   0.3541667   0.0000000), wk =   0.0104167
        k(   43) = (   0.0208333   0.3750000   0.0000000), wk =   0.0104167
        k(   44) = (   0.0208333   0.3958333   0.0000000), wk =   0.0104167
        k(   45) = (   0.0208333   0.4166667   0.0000000), wk =   0.0104167
        k(   46) = (   0.0208333   0.4375000   0.0000000), wk =   0.0104167
        k(   47) = (   0.0208333   0.4583333   0.0000000), wk =   0.0104167
        k(   48) = (   0.0208333   0.4791667   0.0000000), wk =   0.0104167
        k(   49) = (   0.0416667   0.0416667   0.0000000), wk =   0.0052083
        k(   50) = (   0.0416667   0.0625000   0.0000000), wk =   0.0104167
        k(   51) = (   0.0416667   0.0833333   0.0000000), wk =   0.0104167
        k(   52) = (   0.0416667   0.1041667   0.0000000), wk =   0.0104167
        k(   53) = (   0.0416667   0.1250000   0.0000000), wk =   0.0104167
        k(   54) = (   0.0416667   0.1458333   0.0000000), wk =   0.0104167
        k(   55) = (   0.0416667   0.1666667   0.0000000), wk =   0.0104167
        k(   56) = (   0.0416667   0.1875000   0.0000000), wk =   0.0104167
        k(   57) = (   0.0416667   0.2083333   0.0000000), wk =   0.0104167
        k(   58) = (   0.0416667   0.2291667   0.0000000), wk =   0.0104167
        k(   59) = (   0.0416667   0.2500000   0.0000000), wk =   0.0104167
        k(   60) = (   0.0416667   0.2708333   0.0000000), wk =   0.0104167
        k(   61) = (   0.0416667   0.2916667   0.0000000), wk =   0.0104167
        k(   62) = (   0.0416667   0.3125000   0.0000000), wk =   0.0104167
        k(   63) = (   0.0416667   0.3333333   0.0000000), wk =   0.0104167
        k(   64) = (   0.0416667   0.3541667   0.0000000), wk =   0.0104167
        k(   65) = (   0.0416667   0.3750000   0.0000000), wk =   0.0104167
        k(   66) = (   0.0416667   0.3958333   0.0000000), wk =   0.0104167
        k(   67) = (   0.0416667   0.4166667   0.0000000), wk =   0.0104167
        k(   68) = (   0.0416667   0.4375000   0.0000000), wk =   0.0104167
        k(   69) = (   0.0416667   0.4583333   0.0000000), wk =   0.0104167
        k(   70) = (   0.0416667   0.4791667   0.0000000), wk =   0.0052083
        k(   71) = (   0.0625000   0.0625000   0.0000000), wk =   0.0052083
        k(   72) = (   0.0625000   0.0833333   0.0000000), wk =   0.0104167
        k(   73) = (   0.0625000   0.1041667   0.0000000), wk =   0.0104167
        k(   74) = (   0.0625000   0.1250000   0.0000000), wk =   0.0104167
        k(   75) = (   0.0625000   0.1458333   0.0000000), wk =   0.0104167
        k(   76) = (   0.0625000   0.1666667   0.0000000), wk =   0.0104167
        k(   77) = (   0.0625000   0.1875000   0.0000000), wk =   0.0104167
        k(   78) = (   0.0625000   0.2083333   0.0000000), wk =   0.0104167
        k(   79) = (   0.0625000   0.2291667   0.0000000), wk =   0.0104167
        k(   80) = (   0.0625000   0.2500000   0.0000000), wk =   0.0104167
        k(   81) = (   0.0625000   0.2708333   0.0000000), wk =   0.0104167
        k(   82) = (   0.0625000   0.2916667   0.0000000), wk =   0.0104167
        k(   83) = (   0.0625000   0.3125000   0.0000000), wk =   0.0104167
        k(   84) = (   0.0625000   0.3333333   0.0000000), wk =   0.0104167
        k(   85) = (   0.0625000   0.3541667   0.0000000), wk =   0.0104167
        k(   86) = (   0.0625000   0.3750000   0.0000000), wk =   0.0104167
        k(   87) = (   0.0625000   0.3958333   0.0000000), wk =   0.0104167
        k(   88) = (   0.0625000   0.4166667   0.0000000), wk =   0.0104167
        k(   89) = (   0.0625000   0.4375000   0.0000000), wk =   0.0104167
        k(   90) = (   0.0625000   0.4583333   0.0000000), wk =   0.0104167
        k(   91) = (   0.0833333   0.0833333   0.0000000), wk =   0.0052083
        k(   92) = (   0.0833333   0.1041667   0.0000000), wk =   0.0104167
        k(   93) = (   0.0833333   0.1250000   0.0000000), wk =   0.0104167
        k(   94) = (   0.0833333   0.1458333   0.0000000), wk =   0.0104167
        k(   95) = (   0.0833333   0.1666667   0.0000000), wk =   0.0104167
        k(   96) = (   0.0833333   0.1875000   0.0000000), wk =   0.0104167
        k(   97) = (   0.0833333   0.2083333   0.0000000), wk =   0.0104167
        k(   98) = (   0.0833333   0.2291667   0.0000000), wk =   0.0104167
        k(   99) = (   0.0833333   0.2500000   0.0000000), wk =   0.0104167
        k(  100) = (   0.0833333   0.2708333   0.0000000), wk =   0.0104167
        k(  101) = (   0.0833333   0.2916667   0.0000000), wk =   0.0104167
        k(  102) = (   0.0833333   0.3125000   0.0000000), wk =   0.0104167
        k(  103) = (   0.0833333   0.3333333   0.0000000), wk =   0.0104167
        k(  104) = (   0.0833333   0.3541667   0.0000000), wk =   0.0104167
        k(  105) = (   0.0833333   0.3750000   0.0000000), wk =   0.0104167
        k(  106) = (   0.0833333   0.3958333   0.0000000), wk =   0.0104167
        k(  107) = (   0.0833333   0.4166667   0.0000000), wk =   0.0104167
        k(  108) = (   0.0833333   0.4375000   0.0000000), wk =   0.0104167
        k(  109) = (   0.0833333   0.4583333   0.0000000), wk =   0.0052083
        k(  110) = (   0.1041667   0.1041667   0.0000000), wk =   0.0052083
        k(  111) = (   0.1041667   0.1250000   0.0000000), wk =   0.0104167
        k(  112) = (   0.1041667   0.1458333   0.0000000), wk =   0.0104167
        k(  113) = (   0.1041667   0.1666667   0.0000000), wk =   0.0104167
        k(  114) = (   0.1041667   0.1875000   0.0000000), wk =   0.0104167
        k(  115) = (   0.1041667   0.2083333   0.0000000), wk =   0.0104167
        k(  116) = (   0.1041667   0.2291667   0.0000000), wk =   0.0104167
        k(  117) = (   0.1041667   0.2500000   0.0000000), wk =   0.0104167
        k(  118) = (   0.1041667   0.2708333   0.0000000), wk =   0.0104167
        k(  119) = (   0.1041667   0.2916667   0.0000000), wk =   0.0104167
        k(  120) = (   0.1041667   0.3125000   0.0000000), wk =   0.0104167
        k(  121) = (   0.1041667   0.3333333   0.0000000), wk =   0.0104167
        k(  122) = (   0.1041667   0.3541667   0.0000000), wk =   0.0104167
        k(  123) = (   0.1041667   0.3750000   0.0000000), wk =   0.0104167
        k(  124) = (   0.1041667   0.3958333   0.0000000), wk =   0.0104167
        k(  125) = (   0.1041667   0.4166667   0.0000000), wk =   0.0104167
        k(  126) = (   0.1041667   0.4375000   0.0000000), wk =   0.0104167
        k(  127) = (   0.1250000   0.1250000   0.0000000), wk =   0.0052083
        k(  128) = (   0.1250000   0.1458333   0.0000000), wk =   0.0104167
        k(  129) = (   0.1250000   0.1666667   0.0000000), wk =   0.0104167
        k(  130) = (   0.1250000   0.1875000   0.0000000), wk =   0.0104167
        k(  131) = (   0.1250000   0.2083333   0.0000000), wk =   0.0104167
        k(  132) = (   0.1250000   0.2291667   0.0000000), wk =   0.0104167
        k(  133) = (   0.1250000   0.2500000   0.0000000), wk =   0.0104167
        k(  134) = (   0.1250000   0.2708333   0.0000000), wk =   0.0104167
        k(  135) = (   0.1250000   0.2916667   0.0000000), wk =   0.0104167
        k(  136) = (   0.1250000   0.3125000   0.0000000), wk =   0.0104167
        k(  137) = (   0.1250000   0.3333333   0.0000000), wk =   0.0104167
        k(  138) = (   0.1250000   0.3541667   0.0000000), wk =   0.0104167
        k(  139) = (   0.1250000   0.3750000   0.0000000), wk =   0.0104167
        k(  140) = (   0.1250000   0.3958333   0.0000000), wk =   0.0104167
        k(  141) = (   0.1250000   0.4166667   0.0000000), wk =   0.0104167
        k(  142) = (   0.1250000   0.4375000   0.0000000), wk =   0.0052083
        k(  143) = (   0.1458333   0.1458333   0.0000000), wk =   0.0052083
        k(  144) = (   0.1458333   0.1666667   0.0000000), wk =   0.0104167
        k(  145) = (   0.1458333   0.1875000   0.0000000), wk =   0.0104167
        k(  146) = (   0.1458333   0.2083333   0.0000000), wk =   0.0104167
        k(  147) = (   0.1458333   0.2291667   0.0000000), wk =   0.0104167
        k(  148) = (   0.1458333   0.2500000   0.0000000), wk =   0.0104167
        k(  149) = (   0.1458333   0.2708333   0.0000000), wk =   0.0104167
        k(  150) = (   0.1458333   0.2916667   0.0000000), wk =   0.0104167
        k(  151) = (   0.1458333   0.3125000   0.0000000), wk =   0.0104167
        k(  152) = (   0.1458333   0.3333333   0.0000000), wk =   0.0104167
        k(  153) = (   0.1458333   0.3541667   0.0000000), wk =   0.0104167
        k(  154) = (   0.1458333   0.3750000   0.0000000), wk =   0.0104167
        k(  155) = (   0.1458333   0.3958333   0.0000000), wk =   0.0104167
        k(  156) = (   0.1458333   0.4166667   0.0000000), wk =   0.0104167
        k(  157) = (   0.1666667   0.1666667   0.0000000), wk =   0.0052083
        k(  158) = (   0.1666667   0.1875000   0.0000000), wk =   0.0104167
        k(  159) = (   0.1666667   0.2083333   0.0000000), wk =   0.0104167
        k(  160) = (   0.1666667   0.2291667   0.0000000), wk =   0.0104167
        k(  161) = (   0.1666667   0.2500000   0.0000000), wk =   0.0104167
        k(  162) = (   0.1666667   0.2708333   0.0000000), wk =   0.0104167
        k(  163) = (   0.1666667   0.2916667   0.0000000), wk =   0.0104167
        k(  164) = (   0.1666667   0.3125000   0.0000000), wk =   0.0104167
        k(  165) = (   0.1666667   0.3333333   0.0000000), wk =   0.0104167
        k(  166) = (   0.1666667   0.3541667   0.0000000), wk =   0.0104167
        k(  167) = (   0.1666667   0.3750000   0.0000000), wk =   0.0104167
        k(  168) = (   0.1666667   0.3958333   0.0000000), wk =   0.0104167
        k(  169) = (   0.1666667   0.4166667   0.0000000), wk =   0.0052083
        k(  170) = (   0.1875000   0.1875000   0.0000000), wk =   0.0052083
        k(  171) = (   0.1875000   0.2083333   0.0000000), wk =   0.0104167
        k(  172) = (   0.1875000   0.2291667   0.0000000), wk =   0.0104167
        k(  173) = (   0.1875000   0.2500000   0.0000000), wk =   0.0104167
        k(  174) = (   0.1875000   0.2708333   0.0000000), wk =   0.0104167
        k(  175) = (   0.1875000   0.2916667   0.0000000), wk =   0.0104167
        k(  176) = (   0.1875000   0.3125000   0.0000000), wk =   0.0104167
        k(  177) = (   0.1875000   0.3333333   0.0000000), wk =   0.0104167
        k(  178) = (   0.1875000   0.3541667   0.0000000), wk =   0.0104167
        k(  179) = (   0.1875000   0.3750000   0.0000000), wk =   0.0104167
        k(  180) = (   0.1875000   0.3958333   0.0000000), wk =   0.0104167
        k(  181) = (   0.2083333   0.2083333   0.0000000), wk =   0.0052083
        k(  182) = (   0.2083333   0.2291667   0.0000000), wk =   0.0104167
        k(  183) = (   0.2083333   0.2500000   0.0000000), wk =   0.0104167
        k(  184) = (   0.2083333   0.2708333   0.0000000), wk =   0.0104167
        k(  185) = (   0.2083333   0.2916667   0.0000000), wk =   0.0104167
        k(  186) = (   0.2083333   0.3125000   0.0000000), wk =   0.0104167
        k(  187) = (   0.2083333   0.3333333   0.0000000), wk =   0.0104167
        k(  188) = (   0.2083333   0.3541667   0.0000000), wk =   0.0104167
        k(  189) = (   0.2083333   0.3750000   0.0000000), wk =   0.0104167
        k(  190) = (   0.2083333   0.3958333   0.0000000), wk =   0.0052083
        k(  191) = (   0.2291667   0.2291667   0.0000000), wk =   0.0052083
        k(  192) = (   0.2291667   0.2500000   0.0000000), wk =   0.0104167
        k(  193) = (   0.2291667   0.2708333   0.0000000), wk =   0.0104167
        k(  194) = (   0.2291667   0.2916667   0.0000000), wk =   0.0104167
        k(  195) = (   0.2291667   0.3125000   0.0000000), wk =   0.0104167
        k(  196) = (   0.2291667   0.3333333   0.0000000), wk =   0.0104167
        k(  197) = (   0.2291667   0.3541667   0.0000000), wk =   0.0104167
        k(  198) = (   0.2291667   0.3750000   0.0000000), wk =   0.0104167
        k(  199) = (   0.2500000   0.2500000   0.0000000), wk =   0.0052083
        k(  200) = (   0.2500000   0.2708333   0.0000000), wk =   0.0104167
        k(  201) = (   0.2500000   0.2916667   0.0000000), wk =   0.0104167
        k(  202) = (   0.2500000   0.3125000   0.0000000), wk =   0.0104167
        k(  203) = (   0.2500000   0.3333333   0.0000000), wk =   0.0104167
        k(  204) = (   0.2500000   0.3541667   0.0000000), wk =   0.0104167
        k(  205) = (   0.2500000   0.3750000   0.0000000), wk =   0.0052083
        k(  206) = (   0.2708333   0.2708333   0.0000000), wk =   0.0052083
        k(  207) = (   0.2708333   0.2916667   0.0000000), wk =   0.0104167
        k(  208) = (   0.2708333   0.3125000   0.0000000), wk =   0.0104167
        k(  209) = (   0.2708333   0.3333333   0.0000000), wk =   0.0104167
        k(  210) = (   0.2708333   0.3541667   0.0000000), wk =   0.0104167
        k(  211) = (   0.2916667   0.2916667   0.0000000), wk =   0.0052083
        k(  212) = (   0.2916667   0.3125000   0.0000000), wk =   0.0104167
        k(  213) = (   0.2916667   0.3333333   0.0000000), wk =   0.0104167
        k(  214) = (   0.2916667   0.3541667   0.0000000), wk =   0.0052083
        k(  215) = (   0.3125000   0.3125000   0.0000000), wk =   0.0052083
        k(  216) = (   0.3125000   0.3333333   0.0000000), wk =   0.0104167
        k(  217) = (   0.3333333   0.3333333   0.0000000), wk =   0.0017361

     Dense  grid:    99769 G-vectors     FFT dimensions: (  36,  36, 250)

     Dynamical RAM for                 wfc:       0.76 MB

     Dynamical RAM for     wfc (w. buffer):       0.76 MB

     Dynamical RAM for           str. fact:       0.76 MB

     Dynamical RAM for           local pot:       0.00 MB

     Dynamical RAM for          nlocal pot:       1.53 MB

     Dynamical RAM for                qrad:       0.46 MB

     Dynamical RAM for          rho,v,vnew:       5.99 MB

     Dynamical RAM for           G-vectors:       3.23 MB

     Dynamical RAM for          h,s,v(r/c):       0.01 MB

     Dynamical RAM for          <psi|beta>:       0.00 MB

     Dynamical RAM for                 psi:       1.53 MB

     Dynamical RAM for                hpsi:       1.53 MB

     Dynamical RAM for                spsi:       1.53 MB

     Dynamical RAM for      wfcinit/wfcrot:       1.53 MB

     Dynamical RAM for           addusdens:      34.25 MB

     Estimated static dynamical RAM per process >      20.44 MB

     Estimated max dynamical RAM per process >      54.68 MB

     Estimated total dynamical RAM >     109.37 MB

     Check: negative core charge=   -0.000002

     The potential is recalculated from file :
     ./tmp/graphene1.save/charge-density


     negative rho (up, down):  1.259E-04 0.000E+00
     Starting wfcs are    8 randomized atomic wfcs
     Checking if some PAW data can be deallocated... 

     Band Structure Calculation
     Davidson diagonalization with overlap

     Computing kpt #:     1  of   217
     total cpu time spent up to now is        6.7 secs

     Computing kpt #:     2  of   217
     total cpu time spent up to now is       11.6 secs

     Computing kpt #:     3  of   217
     total cpu time spent up to now is       16.1 secs

     Computing kpt #:     4  of   217
     total cpu time spent up to now is       21.1 secs

     Computing kpt #:     5  of   217
     total cpu time spent up to now is       25.7 secs

     Computing kpt #:     6  of   217
     total cpu time spent up to now is       30.3 secs

     Computing kpt #:     7  of   217
     total cpu time spent up to now is       35.1 secs

     Computing kpt #:     8  of   217
     total cpu time spent up to now is       40.0 secs

     Computing kpt #:     9  of   217
     total cpu time spent up to now is       44.9 secs

     Computing kpt #:    10  of   217
     total cpu time spent up to now is       49.8 secs

     Computing kpt #:    11  of   217
     total cpu time spent up to now is       54.7 secs

     Computing kpt #:    12  of   217
     total cpu time spent up to now is       60.2 secs

     Computing kpt #:    13  of   217
     total cpu time spent up to now is       65.3 secs

     Computing kpt #:    14  of   217
     total cpu time spent up to now is       70.4 secs

     Computing kpt #:    15  of   217
     total cpu time spent up to now is       76.2 secs

     Computing kpt #:    16  of   217
     c_bands:  1 eigenvalues not converged
     total cpu time spent up to now is       83.0 secs

     Computing kpt #:    17  of   217
     total cpu time spent up to now is       87.9 secs

     Computing kpt #:    18  of   217
     total cpu time spent up to now is       92.5 secs

     Computing kpt #:    19  of   217
     total cpu time spent up to now is       97.4 secs

     Computing kpt #:    20  of   217
     total cpu time spent up to now is      103.3 secs

     Computing kpt #:    21  of   217
     total cpu time spent up to now is      108.3 secs

     Computing kpt #:    22  of   217
     total cpu time spent up to now is      113.2 secs

     Computing kpt #:    23  of   217
     total cpu time spent up to now is      118.3 secs

     Computing kpt #:    24  of   217
     total cpu time spent up to now is      123.0 secs

     Computing kpt #:    25  of   217
     total cpu time spent up to now is      126.9 secs

     Computing kpt #:    26  of   217
     total cpu time spent up to now is      131.9 secs

     Computing kpt #:    27  of   217
     total cpu time spent up to now is      136.5 secs

     Computing kpt #:    28  of   217
     total cpu time spent up to now is      142.2 secs

     Computing kpt #:    29  of   217
     total cpu time spent up to now is      147.4 secs

     Computing kpt #:    30  of   217
     total cpu time spent up to now is      152.5 secs

     Computing kpt #:    31  of   217
     total cpu time spent up to now is      157.5 secs

     Computing kpt #:    32  of   217
     total cpu time spent up to now is      162.5 secs

     Computing kpt #:    33  of   217
     total cpu time spent up to now is      167.5 secs

     Computing kpt #:    34  of   217
     total cpu time spent up to now is      172.6 secs

     Computing kpt #:    35  of   217
     total cpu time spent up to now is      177.8 secs

     Computing kpt #:    36  of   217
     total cpu time spent up to now is      187.3 secs

     Computing kpt #:    37  of   217
     total cpu time spent up to now is      198.8 secs

     Computing kpt #:    38  of   217
     total cpu time spent up to now is      209.0 secs

     Computing kpt #:    39  of   217
     total cpu time spent up to now is      219.9 secs

     Computing kpt #:    40  of   217
     total cpu time spent up to now is      232.7 secs

     Computing kpt #:    41  of   217
     total cpu time spent up to now is      245.1 secs

     Computing kpt #:    42  of   217
     total cpu time spent up to now is      256.4 secs

     Computing kpt #:    43  of   217
     total cpu time spent up to now is      266.5 secs

     Computing kpt #:    44  of   217
     total cpu time spent up to now is      276.4 secs

     Computing kpt #:    45  of   217
     total cpu time spent up to now is      285.2 secs

     Computing kpt #:    46  of   217
     total cpu time spent up to now is      295.3 secs

     Computing kpt #:    47  of   217
     total cpu time spent up to now is      304.0 secs

     Computing kpt #:    48  of   217
     total cpu time spent up to now is      315.0 secs

     Computing kpt #:    49  of   217
     total cpu time spent up to now is      324.4 secs

     Computing kpt #:    50  of   217
     total cpu time spent up to now is      333.8 secs

     Computing kpt #:    51  of   217
     total cpu time spent up to now is      344.8 secs

     Computing kpt #:    52  of   217
     total cpu time spent up to now is      355.6 secs

     Computing kpt #:    53  of   217
     total cpu time spent up to now is      366.5 secs

     Computing kpt #:    54  of   217
     total cpu time spent up to now is      377.0 secs

     Computing kpt #:    55  of   217
     total cpu time spent up to now is      386.5 secs

     Computing kpt #:    56  of   217
     total cpu time spent up to now is      396.8 secs

     Computing kpt #:    57  of   217
     total cpu time spent up to now is      408.0 secs

     Computing kpt #:    58  of   217
     total cpu time spent up to now is      418.4 secs

     Computing kpt #:    59  of   217
     total cpu time spent up to now is      428.2 secs

     Computing kpt #:    60  of   217
     total cpu time spent up to now is      440.1 secs

     Computing kpt #:    61  of   217
     total cpu time spent up to now is      454.5 secs

     Computing kpt #:    62  of   217
     total cpu time spent up to now is      466.3 secs

     Computing kpt #:    63  of   217
     total cpu time spent up to now is      476.4 secs

     Computing kpt #:    64  of   217
     total cpu time spent up to now is      486.8 secs

     Computing kpt #:    65  of   217
     total cpu time spent up to now is      496.7 secs

     Computing kpt #:    66  of   217
     total cpu time spent up to now is      506.0 secs

     Computing kpt #:    67  of   217
     total cpu time spent up to now is      516.1 secs

     Computing kpt #:    68  of   217
     total cpu time spent up to now is      524.9 secs

     Computing kpt #:    69  of   217
     total cpu time spent up to now is      534.8 secs

     Computing kpt #:    70  of   217
     total cpu time spent up to now is      543.1 secs

     Computing kpt #:    71  of   217
     total cpu time spent up to now is      553.3 secs

     Computing kpt #:    72  of   217
     total cpu time spent up to now is      563.7 secs

     Computing kpt #:    73  of   217
     total cpu time spent up to now is      575.9 secs

     Computing kpt #:    74  of   217
     total cpu time spent up to now is      588.1 secs

     Computing kpt #:    75  of   217
     total cpu time spent up to now is      597.7 secs

     Computing kpt #:    76  of   217
     total cpu time spent up to now is      608.4 secs

     Computing kpt #:    77  of   217
     total cpu time spent up to now is      619.6 secs

     Computing kpt #:    78  of   217
     total cpu time spent up to now is      632.4 secs

     Computing kpt #:    79  of   217
     total cpu time spent up to now is      642.1 secs

     Computing kpt #:    80  of   217
     total cpu time spent up to now is      652.6 secs

     Computing kpt #:    81  of   217
     total cpu time spent up to now is      663.2 secs

     Computing kpt #:    82  of   217
     c_bands:  2 eigenvalues not converged
     total cpu time spent up to now is      679.9 secs

     Computing kpt #:    83  of   217
     total cpu time spent up to now is      692.4 secs

     Computing kpt #:    84  of   217
     total cpu time spent up to now is      704.3 secs

     Computing kpt #:    85  of   217
     total cpu time spent up to now is      716.5 secs

     Computing kpt #:    86  of   217
     total cpu time spent up to now is      727.0 secs

     Computing kpt #:    87  of   217
     total cpu time spent up to now is      737.0 secs

     Computing kpt #:    88  of   217
     total cpu time spent up to now is      747.0 secs

     Computing kpt #:    89  of   217
     total cpu time spent up to now is      757.3 secs

     Computing kpt #:    90  of   217
     total cpu time spent up to now is      770.6 secs

     Computing kpt #:    91  of   217
     total cpu time spent up to now is      782.2 secs

     Computing kpt #:    92  of   217
     total cpu time spent up to now is      793.6 secs

     Computing kpt #:    93  of   217
     total cpu time spent up to now is      805.7 secs

     Computing kpt #:    94  of   217
     total cpu time spent up to now is      817.0 secs

     Computing kpt #:    95  of   217
     total cpu time spent up to now is      828.5 secs

     Computing kpt #:    96  of   217
     total cpu time spent up to now is      841.9 secs

     Computing kpt #:    97  of   217
     total cpu time spent up to now is      853.4 secs

     Computing kpt #:    98  of   217
     total cpu time spent up to now is      863.7 secs

     Computing kpt #:    99  of   217
     total cpu time spent up to now is      870.9 secs

     Computing kpt #:   100  of   217
     total cpu time spent up to now is      878.5 secs

     Computing kpt #:   101  of   217
     c_bands:  1 eigenvalues not converged
     total cpu time spent up to now is      888.0 secs

     Computing kpt #:   102  of   217
     total cpu time spent up to now is      893.5 secs

     Computing kpt #:   103  of   217
     total cpu time spent up to now is      898.3 secs

     Computing kpt #:   104  of   217
     total cpu time spent up to now is      903.6 secs

     Computing kpt #:   105  of   217
     total cpu time spent up to now is      908.1 secs

     Computing kpt #:   106  of   217
     total cpu time spent up to now is      912.7 secs

     Computing kpt #:   107  of   217
     total cpu time spent up to now is      917.2 secs

     Computing kpt #:   108  of   217
     total cpu time spent up to now is      921.6 secs

     Computing kpt #:   109  of   217
     total cpu time spent up to now is      926.8 secs

     Computing kpt #:   110  of   217
     total cpu time spent up to now is      931.9 secs

     Computing kpt #:   111  of   217
     total cpu time spent up to now is      938.5 secs

     Computing kpt #:   112  of   217
     total cpu time spent up to now is      943.7 secs

     Computing kpt #:   113  of   217
     total cpu time spent up to now is      948.8 secs

     Computing kpt #:   114  of   217
     total cpu time spent up to now is      953.5 secs

     Computing kpt #:   115  of   217
     total cpu time spent up to now is      958.7 secs

     Computing kpt #:   116  of   217
     total cpu time spent up to now is      963.5 secs

     Computing kpt #:   117  of   217
     total cpu time spent up to now is      969.0 secs

     Computing kpt #:   118  of   217
     total cpu time spent up to now is      974.0 secs

     Computing kpt #:   119  of   217
     c_bands:  1 eigenvalues not converged
     total cpu time spent up to now is      982.0 secs

     Computing kpt #:   120  of   217
     total cpu time spent up to now is      987.6 secs

     Computing kpt #:   121  of   217
     total cpu time spent up to now is      992.6 secs

     Computing kpt #:   122  of   217
     total cpu time spent up to now is      997.0 secs

     Computing kpt #:   123  of   217
     total cpu time spent up to now is     1001.4 secs

     Computing kpt #:   124  of   217
     total cpu time spent up to now is     1005.4 secs

     Computing kpt #:   125  of   217
     total cpu time spent up to now is     1009.7 secs

     Computing kpt #:   126  of   217
     c_bands:  1 eigenvalues not converged
     total cpu time spent up to now is     1015.9 secs

     Computing kpt #:   127  of   217
     total cpu time spent up to now is     1021.5 secs

     Computing kpt #:   128  of   217
     total cpu time spent up to now is     1027.7 secs

     Computing kpt #:   129  of   217
     total cpu time spent up to now is     1032.9 secs

     Computing kpt #:   130  of   217
     total cpu time spent up to now is     1037.3 secs

     Computing kpt #:   131  of   217
     total cpu time spent up to now is     1041.8 secs

     Computing kpt #:   132  of   217
     total cpu time spent up to now is     1046.2 secs

     Computing kpt #:   133  of   217
     total cpu time spent up to now is     1050.6 secs

     Computing kpt #:   134  of   217
     total cpu time spent up to now is     1055.5 secs

     Computing kpt #:   135  of   217
     c_bands:  1 eigenvalues not converged
     total cpu time spent up to now is     1062.6 secs

     Computing kpt #:   136  of   217
     total cpu time spent up to now is     1067.5 secs

     Computing kpt #:   137  of   217
     total cpu time spent up to now is     1072.3 secs

     Computing kpt #:   138  of   217
     total cpu time spent up to now is     1077.1 secs

     Computing kpt #:   139  of   217
     total cpu time spent up to now is     1082.1 secs

     Computing kpt #:   140  of   217
     total cpu time spent up to now is     1087.2 secs

     Computing kpt #:   141  of   217
     total cpu time spent up to now is     1091.6 secs

     Computing kpt #:   142  of   217
     total cpu time spent up to now is     1096.2 secs

     Computing kpt #:   143  of   217
     total cpu time spent up to now is     1100.7 secs

     Computing kpt #:   144  of   217
     total cpu time spent up to now is     1105.0 secs

     Computing kpt #:   145  of   217
     total cpu time spent up to now is     1109.5 secs

     Computing kpt #:   146  of   217
     total cpu time spent up to now is     1114.4 secs

     Computing kpt #:   147  of   217
     total cpu time spent up to now is     1119.3 secs

     Computing kpt #:   148  of   217
     total cpu time spent up to now is     1124.3 secs

     Computing kpt #:   149  of   217
     total cpu time spent up to now is     1128.8 secs

     Computing kpt #:   150  of   217
     c_bands:  1 eigenvalues not converged
     total cpu time spent up to now is     1139.4 secs

     Computing kpt #:   151  of   217
     total cpu time spent up to now is     1150.1 secs

     Computing kpt #:   152  of   217
     total cpu time spent up to now is     1159.3 secs

     Computing kpt #:   153  of   217
     total cpu time spent up to now is     1168.6 secs

     Computing kpt #:   154  of   217
     total cpu time spent up to now is     1177.5 secs

     Computing kpt #:   155  of   217
     total cpu time spent up to now is     1186.3 secs

     Computing kpt #:   156  of   217
     total cpu time spent up to now is     1197.0 secs

     Computing kpt #:   157  of   217
     total cpu time spent up to now is     1205.9 secs

     Computing kpt #:   158  of   217
     total cpu time spent up to now is     1215.8 secs

     Computing kpt #:   159  of   217
     total cpu time spent up to now is     1225.0 secs

     Computing kpt #:   160  of   217
     total cpu time spent up to now is     1234.4 secs

     Computing kpt #:   161  of   217
     total cpu time spent up to now is     1244.4 secs

     Computing kpt #:   162  of   217
     total cpu time spent up to now is     1254.0 secs

     Computing kpt #:   163  of   217
     c_bands:  1 eigenvalues not converged
     total cpu time spent up to now is     1267.6 secs

     Computing kpt #:   164  of   217
     total cpu time spent up to now is     1279.2 secs

     Computing kpt #:   165  of   217
     total cpu time spent up to now is     1288.5 secs

     Computing kpt #:   166  of   217
     total cpu time spent up to now is     1297.6 secs

     Computing kpt #:   167  of   217
     total cpu time spent up to now is     1308.0 secs

     Computing kpt #:   168  of   217
     total cpu time spent up to now is     1317.1 secs

     Computing kpt #:   169  of   217
     total cpu time spent up to now is     1328.9 secs

     Computing kpt #:   170  of   217
     total cpu time spent up to now is     1337.4 secs

     Computing kpt #:   171  of   217
     total cpu time spent up to now is     1345.8 secs

     Computing kpt #:   172  of   217
     total cpu time spent up to now is     1355.6 secs

     Computing kpt #:   173  of   217
     total cpu time spent up to now is     1365.7 secs

     Computing kpt #:   174  of   217
     total cpu time spent up to now is     1376.4 secs

     Computing kpt #:   175  of   217
     total cpu time spent up to now is     1390.3 secs

     Computing kpt #:   176  of   217
     total cpu time spent up to now is     1401.1 secs

     Computing kpt #:   177  of   217
     total cpu time spent up to now is     1410.3 secs

     Computing kpt #:   178  of   217
     total cpu time spent up to now is     1419.6 secs

     Computing kpt #:   179  of   217
     total cpu time spent up to now is     1428.6 secs

     Computing kpt #:   180  of   217
     total cpu time spent up to now is     1437.9 secs

     Computing kpt #:   181  of   217
     total cpu time spent up to now is     1447.9 secs

     Computing kpt #:   182  of   217
     total cpu time spent up to now is     1456.8 secs

     Computing kpt #:   183  of   217
     total cpu time spent up to now is     1467.3 secs

     Computing kpt #:   184  of   217
     total cpu time spent up to now is     1476.6 secs

     Computing kpt #:   185  of   217
     total cpu time spent up to now is     1486.9 secs

     Computing kpt #:   186  of   217
     total cpu time spent up to now is     1497.9 secs

     Computing kpt #:   187  of   217
     total cpu time spent up to now is     1506.7 secs

     Computing kpt #:   188  of   217
     total cpu time spent up to now is     1514.7 secs

     Computing kpt #:   189  of   217
     total cpu time spent up to now is     1523.7 secs

     Computing kpt #:   190  of   217
     total cpu time spent up to now is     1533.6 secs

     Computing kpt #:   191  of   217
     total cpu time spent up to now is     1542.3 secs

     Computing kpt #:   192  of   217
     total cpu time spent up to now is     1551.3 secs

     Computing kpt #:   193  of   217
     total cpu time spent up to now is     1560.3 secs

     Computing kpt #:   194  of   217
     total cpu time spent up to now is     1571.9 secs

     Computing kpt #:   195  of   217
     total cpu time spent up to now is     1581.8 secs

     Computing kpt #:   196  of   217
     total cpu time spent up to now is     1590.5 secs

     Computing kpt #:   197  of   217
     total cpu time spent up to now is     1598.9 secs

     Computing kpt #:   198  of   217
     total cpu time spent up to now is     1607.9 secs

     Computing kpt #:   199  of   217
     total cpu time spent up to now is     1617.5 secs

     Computing kpt #:   200  of   217
     total cpu time spent up to now is     1627.1 secs

     Computing kpt #:   201  of   217
     total cpu time spent up to now is     1637.2 secs

     Computing kpt #:   202  of   217
     total cpu time spent up to now is     1646.9 secs

     Computing kpt #:   203  of   217
     total cpu time spent up to now is     1655.4 secs

     Computing kpt #:   204  of   217
     total cpu time spent up to now is     1664.7 secs

     Computing kpt #:   205  of   217
     total cpu time spent up to now is     1673.7 secs

     Computing kpt #:   206  of   217
     total cpu time spent up to now is     1683.1 secs

     Computing kpt #:   207  of   217
     total cpu time spent up to now is     1692.7 secs

     Computing kpt #:   208  of   217
     total cpu time spent up to now is     1702.3 secs

     Computing kpt #:   209  of   217
     total cpu time spent up to now is     1710.5 secs

     Computing kpt #:   210  of   217
     total cpu time spent up to now is     1718.6 secs

     Computing kpt #:   211  of   217
     c_bands:  1 eigenvalues not converged
     total cpu time spent up to now is     1730.7 secs

     Computing kpt #:   212  of   217
     total cpu time spent up to now is     1739.2 secs

     Computing kpt #:   213  of   217
     total cpu time spent up to now is     1747.9 secs

     Computing kpt #:   214  of   217
     total cpu time spent up to now is     1757.8 secs

     Computing kpt #:   215  of   217
     total cpu time spent up to now is     1766.0 secs

     Computing kpt #:   216  of   217
     total cpu time spent up to now is     1774.2 secs

     Computing kpt #:   217  of   217
     total cpu time spent up to now is     1782.5 secs

     ethr =  1.25E-12,  avg # of iterations = 68.6

     total cpu time spent up to now is     1782.6 secs

     End of band structure calculation

          k = 0.0000 0.0000 0.0000 ( 12475 PWs)   bands (ev):

   -21.6146  -9.7899  -5.6371  -5.6371   0.8126   1.4698   1.5997   2.6115

     occupation numbers 
     1.0000   1.0000   1.0000   1.0000   0.0000   0.0000   0.0000   0.0000

          k = 0.0000 0.0241 0.0000 ( 12505 PWs)   bands (ev):

   -21.6047  -9.7782  -5.6790  -5.6583   0.8260   1.4834   1.6134   2.6251

     occupation numbers 
     1.0000   1.0000   1.0000   1.0000   0.0000   0.0000   0.0000   0.0000

          k = 0.0000 0.0481 0.0000 ( 12535 PWs)   bands (ev):

   -21.5751  -9.7432  -5.8030  -5.7207   0.8663   1.5242   1.6545   2.6657

     occupation numbers 
     1.0000   1.0000   1.0000   1.0000   0.0000   0.0000   0.0000   0.0000

          k = 0.0000 0.0722 0.0000 ( 12539 PWs)   bands (ev):

   -21.5256  -9.6849  -6.0040  -5.8211   0.9334   1.5922   1.7229   2.7334

     occupation numbers 
     1.0000   1.0000   1.0000   1.0000   0.0000   0.0000   0.0000   0.0000

          k = 0.0000 0.0962 0.0000 ( 12549 PWs)   bands (ev):

   -21.4565  -9.6033  -6.2745  -5.9547   1.0274   1.6873   1.8188   2.8281

     occupation numbers 
     1.0000   1.0000   1.0000   1.0000   0.0000   0.0000   0.0000   0.0000

          k = 0.0000 0.1203 0.0000 ( 12571 PWs)   bands (ev):

   -21.3677  -9.4988  -6.6056  -6.1155   1.1482   1.8095   1.9420   2.9499

     occupation numbers 
     1.0000   1.0000   1.0000   1.0000   0.0000   0.0000   0.0000   0.0000

          k = 0.0000 0.1443 0.0000 ( 12559 PWs)   bands (ev):

   -21.2593  -9.3714  -6.9881  -6.2975   1.2959   1.9589   2.0926   3.0987

     occupation numbers 
     1.0000   1.0000   1.0000   1.0000   0.0000   0.0000   0.0000   0.0000

          k = 0.0000 0.1684 0.0000 ( 12571 PWs)   bands (ev):

   -21.1314  -9.2213  -7.4127  -6.4945   1.4703   2.1352   2.2705   3.2743

     occupation numbers 
     1.0000   1.0000   1.0000   1.0000   0.0000   0.0000   0.0000   0.0000

          k = 0.0000 0.1925 0.0000 ( 12567 PWs)   bands (ev):

   -20.9840  -9.0489  -7.8711  -6.7011   1.6715   2.3386   2.4759   3.4766

     occupation numbers 
     1.0000   1.0000   1.0000   1.0000   0.0000   0.0000   0.0000   0.0000

          k = 0.0000 0.2165 0.0000 ( 12551 PWs)   bands (ev):

   -20.8173  -8.8547  -8.3558  -6.9123   1.8994   2.5687   2.7086   3.7053

     occupation numbers 
     1.0000   1.0000   1.0000   1.0000   0.0000   0.0000   0.0000   0.0000

          k = 0.0000 0.2406 0.0000 ( 12549 PWs)   bands (ev):

   -20.6315  -8.8603  -8.6389  -7.1237   2.1540   2.8252   2.9687   3.9593

     occupation numbers 
     1.0000   1.0000   1.0000   1.0000   0.0000   0.0000   0.0000   0.0000

          k = 0.0000 0.2646 0.0000 ( 12553 PWs)   bands (ev):

   -20.4267  -9.3790  -8.4024  -7.3317   2.4351   3.1071   3.2560   4.2315

     occupation numbers 
     1.0000   1.0000   1.0000   1.0000   0.0000   0.0000   0.0000   0.0000

          k = 0.0000 0.2887 0.0000 ( 12553 PWs)   bands (ev):

   -20.2031  -9.9069  -8.1458  -7.5332   2.7426   3.4097   3.5707   4.2587

     occupation numbers 
     1.0000   1.0000   1.0000   1.0000   0.0000   0.0000   0.0000   0.0000

          k = 0.0000 0.3127 0.0000 ( 12561 PWs)   bands (ev):

   -19.9610 -10.4400  -7.8700  -7.7256   3.0763   3.6224   3.8800   3.9124

     occupation numbers 
     1.0000   1.0000   1.0000   1.0000   0.0000   0.0000   0.0000   0.0000

          k = 0.0000 0.3368 0.0000 ( 12525 PWs)   bands (ev):

   -19.7006 -10.9746  -7.9068  -7.5765   3.1806   3.4357   4.1505   4.2805

     occupation numbers 
     1.0000   1.0000   1.0000   1.0000   0.0000   0.0000   0.0000   0.0000

          k = 0.0000 0.3608 0.0000 ( 12521 PWs)   bands (ev):

   -19.4224 -11.5078  -8.0750  -7.2669   2.6463   3.8194   4.5343   4.6414

     occupation numbers 
     1.0000   1.0000   1.0000   1.0000   0.0000   0.0000   0.0000   0.0000

          k = 0.0000 0.3849 0.0000 ( 12501 PWs)   bands (ev):

   -19.1269 -12.0365  -8.2287  -6.9434   2.1080   4.2196   4.6076   4.9500

     occupation numbers 
     1.0000   1.0000   1.0000   1.0000   0.0000   0.0000   0.0000   0.0000

          k = 0.0000 0.4090 0.0000 ( 12495 PWs)   bands (ev):

   -18.8148 -12.5583  -8.3667  -6.6092   1.5762   4.4692   4.7220   5.3934

     occupation numbers 
     1.0000   1.0000   1.0000   1.0000   0.0000   0.0000   0.0000   0.0000

          k = 0.0000 0.4330 0.0000 ( 12491 PWs)   bands (ev):

   -18.4870 -13.0706  -8.4881  -6.2689   1.0592   4.4290   5.1589   5.8634

     occupation numbers 
     1.0000   1.0000   1.0000   1.0000   0.0000   0.0000   0.0000   0.0000

          k = 0.0000 0.4571 0.0000 ( 12483 PWs)   bands (ev):

   -18.1453 -13.5705  -8.5920  -5.9293   0.5661   4.3747   5.6440   6.3592

     occupation numbers 
     1.0000   1.0000   1.0000   1.0000   0.0000   0.0000   0.0000   0.0000

          k = 0.0000 0.4811 0.0000 ( 12455 PWs)   bands (ev):

   -17.7923 -14.0541  -8.6778  -5.6005   0.1093   4.3272   6.1569   6.8803

     occupation numbers 
     1.0000   1.0000   1.0000   1.0000   0.0000   0.0000   0.0000   0.0000

          k = 0.0000 0.5052 0.0000 ( 12459 PWs)   bands (ev):

   -17.4339 -14.5150  -8.7451  -5.2980  -0.2943   4.2891   6.6948   7.4255

     occupation numbers 
     1.0000   1.0000   1.0000   1.0000   0.0000   0.0000   0.0000   0.0000

          k = 0.0000 0.5292 0.0000 ( 12470 PWs)   bands (ev):

   -17.0837 -14.9388  -8.7933  -5.0451  -0.6203   4.2614   7.2561   7.9935

     occupation numbers 
     1.0000   1.0000   1.0000   1.0000   0.0000   0.0000   0.0000   0.0000

          k = 0.0000 0.5533 0.0000 ( 12456 PWs)   bands (ev):

   -16.7816 -15.2852  -8.8224  -4.8723  -0.8373   4.2446   7.8382   8.5804

     occupation numbers 
     1.0000   1.0000   1.0000   1.0000   0.0000   0.0000   0.0000   0.0000

          k = 0.0000-0.5774 0.0000 ( 12458 PWs)   bands (ev):

   -16.6430 -15.4386  -8.8321  -4.8102  -0.9142   4.2390   8.3733   8.5207

     occupation numbers 
     1.0000   1.0000   1.0000   1.0000   0.0000   0.0000   0.0000   0.0000

          k = 0.0208 0.0361 0.0000 ( 12519 PWs)   bands (ev):

   -21.5849  -9.7549  -5.7614  -5.7007   0.8529   1.5106   1.6408   2.6521

     occupation numbers 
     1.0000   1.0000   1.0000   1.0000   0.0000   0.0000   0.0000   0.0000

[...]

     occupation numbers 
     1.0000   1.0000   1.0000   1.0000   0.0000   0.0000   0.0000   0.0000

          k = 0.1458 0.3488 0.0000 ( 12489 PWs)   bands (ev):

   -19.2131 -11.2253  -9.2510  -7.0215   2.4849   4.1192   4.8061   4.9809

     occupation numbers 
     1.0000   1.0000   1.0000   1.0000   0.0000   0.0000   0.0000   0.0000

          k = 0.1458 0.3729 0.0000 ( 12478 PWs)   bands (ev):

   -18.9285 -11.6957  -9.4505  -6.7071   2.0021   4.5178   5.2068   5.3912

     occupation numbers 
     1.0000   1.0000   1.0000   1.0000   0.0000   0.0000   0.0000   0.0000

          k = 0.1458 0.3969 0.0000 ( 12476 PWs)   bands (ev):

   -18.6273 -12.1724  -9.6260  -6.3798   1.5188   4.9416   5.6321   5.8282

     occupation numbers 
     1.0000   1.0000   1.0000   1.0000   0.0000   0.0000   0.0000   0.0000

          k = 0.1458 0.4210 0.0000 ( 12465 PWs)   bands (ev):

   -18.3103 -12.6504  -9.7783  -6.0430   1.0404   5.3897   6.0812   6.2875

     occupation numbers 
     1.0000   1.0000   1.0000   1.0000   0.0000   0.0000   0.0000   0.0000

          k = 0.1458 0.4450 0.0000 ( 12465 PWs)   bands (ev):

   -17.9789 -13.1251  -9.9081  -5.7015   0.5737   5.8580   6.3869   6.5524

     occupation numbers 
     1.0000   1.0000   1.0000   1.0000   0.0000   0.0000   0.0000   0.0000

          k = 0.1458 0.4691 0.0000 ( 12471 PWs)   bands (ev):

   -17.6351 -13.5917 -10.0157  -5.3629   0.1280   6.2597   6.4317   7.0429

     occupation numbers 
     1.0000   1.0000   1.0000   1.0000   0.0000   0.0000   0.0000   0.0000

          k = 0.1458 0.4932 0.0000 ( 12461 PWs)   bands (ev):

   -17.2830 -14.0443 -10.1016  -5.0391  -0.2835   6.2658   6.9030   7.5474

     occupation numbers 
     1.0000   1.0000   1.0000   1.0000   0.0000   0.0000   0.0000   0.0000

          k = 0.1458 0.5172 0.0000 ( 12469 PWs)   bands (ev):

   -16.9310 -14.4728 -10.1659  -4.7486  -0.6407   6.2365   7.4412   8.0548

     occupation numbers 
     1.0000   1.0000   1.0000   1.0000   0.0000   0.0000   0.0000   0.0000

          k = 0.1458 0.5413 0.0000 ( 12446 PWs)   bands (ev):

   -16.6014 -14.8540 -10.2087  -4.5204  -0.9141   6.2149   8.0009   8.5367

     occupation numbers 
     1.0000   1.0000   1.0000   1.0000   0.0000   0.0000   0.0000   0.0000

          k = 0.1458 0.5653 0.0000 ( 12442 PWs)   bands (ev):

   -16.3636 -15.1177 -10.2301  -4.3912  -1.0659   6.2037   8.5693   8.8997

     occupation numbers 
     1.0000   1.0000   1.0000   1.0000   0.0000   0.0000   0.0000   0.0000

          k = 0.1667 0.2887 0.0000 ( 12523 PWs)   bands (ev):

   -19.7395 -10.2653  -8.8231  -7.6131   3.3860   3.4599   4.0665   4.2284

     occupation numbers 
     1.0000   1.0000   1.0000   1.0000   0.0000   0.0000   0.0000   0.0000

          k = 0.1667 0.3127 0.0000 ( 12511 PWs)   bands (ev):

   -19.4996 -10.6484  -9.1211  -7.3413   3.0165   3.7197   4.4017   4.5705

     occupation numbers 
     1.0000   1.0000   1.0000   1.0000   0.0000   0.0000   0.0000   0.0000

          k = 0.1667 0.3368 0.0000 ( 12493 PWs)   bands (ev):

   -19.2417 -11.0570  -9.3908  -7.0517   2.5619   4.0795   4.7628   4.9400

     occupation numbers 
     1.0000   1.0000   1.0000   1.0000   0.0000   0.0000   0.0000   0.0000

          k = 0.1667 0.3608 0.0000 ( 12481 PWs)   bands (ev):

   -18.9664 -11.4873  -9.6296  -6.7457   2.0998   4.4651   5.1492   5.3367

     occupation numbers 
     1.0000   1.0000   1.0000   1.0000   0.0000   0.0000   0.0000   0.0000

          k = 0.1667 0.3849 0.0000 ( 12480 PWs)   bands (ev):

   -18.6742 -11.9338  -9.8380  -6.4255   1.6337   4.8762   5.5600   5.7606

     occupation numbers 
     1.0000   1.0000   1.0000   1.0000   0.0000   0.0000   0.0000   0.0000

          k = 0.1667 0.4090 0.0000 ( 12469 PWs)   bands (ev):

   -18.3659 -12.3901 -10.0177  -6.0936   1.1682   5.3123   5.9941   6.2114

     occupation numbers 
     1.0000   1.0000   1.0000   1.0000   0.0000   0.0000   0.0000   0.0000

          k = 0.1667 0.4330 0.0000 ( 12460 PWs)   bands (ev):

   -18.0426 -12.8503 -10.1704  -5.7540   0.7088   5.7723   6.4496   6.6866

     occupation numbers 
     1.0000   1.0000   1.0000   1.0000   0.0000   0.0000   0.0000   0.0000

          k = 0.1667 0.4571 0.0000 ( 12468 PWs)   bands (ev):

   -17.7059 -13.3086 -10.2977  -5.4125   0.2629   6.2530   6.8699   6.9231

     occupation numbers 
     1.0000   1.0000   1.0000   1.0000   0.0000   0.0000   0.0000   0.0000

          k = 0.1667 0.4811 0.0000 ( 12455 PWs)   bands (ev):

   -17.3587 -13.7591 -10.4006  -5.0781  -0.1591   6.7072   6.8770   7.4083

     occupation numbers 
     1.0000   1.0000   1.0000   1.0000   0.0000   0.0000   0.0000   0.0000

          k = 0.1667 0.5052 0.0000 ( 12446 PWs)   bands (ev):

   -17.0065 -14.1938 -10.4800  -4.7654  -0.5414   6.7582   7.3167   7.8922

     occupation numbers 
     1.0000   1.0000   1.0000   1.0000   0.0000   0.0000   0.0000   0.0000

          k = 0.1667 0.5292 0.0000 ( 12449 PWs)   bands (ev):

   -16.6627 -14.5976 -10.5364  -4.4978  -0.8594   6.7351   7.8598   8.3452

     occupation numbers 
     1.0000   1.0000   1.0000   1.0000   0.0000   0.0000   0.0000   0.0000

          k = 0.1667 0.5533 0.0000 ( 12442 PWs)   bands (ev):

   -16.3660 -14.9308 -10.5701  -4.3101  -1.0776   6.7189   8.4202   8.6996

     occupation numbers 
     1.0000   1.0000   1.0000   1.0000   0.0000   0.0000   0.0000   0.0000

          k = 0.1667 0.5774 0.0000 ( 12448 PWs)   bands (ev):

   -16.2295 -15.0796 -10.5813  -4.2413  -1.1567   6.7134   8.8409   8.9033

     occupation numbers 
     1.0000   1.0000   1.0000   1.0000   0.0000   0.0000   0.0000   0.0000

          k = 0.1875 0.3248 0.0000 ( 12503 PWs)   bands (ev):

   -19.2513 -10.9929  -9.4456  -7.0617   2.5882   4.0663   4.7483   4.9264

     occupation numbers 
     1.0000   1.0000   1.0000   1.0000   0.0000   0.0000   0.0000   0.0000

          k = 0.1875 0.3488 0.0000 ( 12483 PWs)   bands (ev):

   -18.9854 -11.3627  -9.7404  -6.7651   2.1503   4.4387   5.1202   5.3095

     occupation numbers 
     1.0000   1.0000   1.0000   1.0000   0.0000   0.0000   0.0000   0.0000

          k = 0.1875 0.3729 0.0000 ( 12485 PWs)   bands (ev):

   -18.7024 -11.7576  -9.9997  -6.4530   1.7058   4.8368   5.5163   5.7198

     occupation numbers 
     1.0000   1.0000   1.0000   1.0000   0.0000   0.0000   0.0000   0.0000

          k = 0.1875 0.3969 0.0000 ( 12478 PWs)   bands (ev):

   -18.4031 -12.1737 -10.2225  -6.1277   1.2583   5.2600   5.9354   6.1573

     occupation numbers 
     1.0000   1.0000   1.0000   1.0000   0.0000   0.0000   0.0000   0.0000

          k = 0.1875 0.4210 0.0000 ( 12464 PWs)   bands (ev):

   -18.0883 -12.6044 -10.4105  -5.7921   0.8121   5.7078   6.3750   6.6217

     occupation numbers 
     1.0000   1.0000   1.0000   1.0000   0.0000   0.0000   0.0000   0.0000

          k = 0.1875 0.4450 0.0000 ( 12464 PWs)   bands (ev):

   -17.7594 -13.0428 -10.5665  -5.4508   0.3731   6.1790   6.8313   7.1115

     occupation numbers 
     1.0000   1.0000   1.0000   1.0000   0.0000   0.0000   0.0000   0.0000

          k = 0.1875 0.4691 0.0000 ( 12458 PWs)   bands (ev):

   -17.4185 -13.4817 -10.6931  -5.1106  -0.0508   6.6707   7.2966   7.3834

     occupation numbers 
     1.0000   1.0000   1.0000   1.0000   0.0000   0.0000   0.0000   0.0000

          k = 0.1875 0.4932 0.0000 ( 12439 PWs)   bands (ev):

   -17.0695 -13.9131 -10.7924  -4.7824  -0.4475   7.1569   7.3720   7.7555

     occupation numbers 
     1.0000   1.0000   1.0000   1.0000   0.0000   0.0000   0.0000   0.0000

          k = 0.1875 0.5172 0.0000 ( 12441 PWs)   bands (ev):

   -16.7207 -14.3261 -10.8657  -4.4845  -0.7977   7.2784   7.7519   8.1759

     occupation numbers 
     1.0000   1.0000   1.0000   1.0000   0.0000   0.0000   0.0000   0.0000

          k = 0.1875 0.5413 0.0000 ( 12436 PWs)   bands (ev):

   -16.3939 -14.6967 -10.9141  -4.2463  -1.0712   7.2626   8.2947   8.5009

     occupation numbers 
     1.0000   1.0000   1.0000   1.0000   0.0000   0.0000   0.0000   0.0000

          k = 0.1875 0.5653 0.0000 ( 12446 PWs)   bands (ev):

   -16.1571 -14.9558 -10.9382  -4.1092  -1.2262   7.2521   8.6725   8.8422

     occupation numbers 
     1.0000   1.0000   1.0000   1.0000   0.0000   0.0000   0.0000   0.0000

          k = 0.2083 0.3608 0.0000 ( 12479 PWs)   bands (ev):

   -18.7119 -11.6901 -10.0626  -6.4622   1.7304   4.8236   5.5017   5.7062

     occupation numbers 
     1.0000   1.0000   1.0000   1.0000   0.0000   0.0000   0.0000   0.0000

          k = 0.2083 0.3849 0.0000 ( 12472 PWs)   bands (ev):

   -18.4218 -12.0432 -10.3478  -6.1448   1.3049   5.2338   5.9058   6.1301

     occupation numbers 
     1.0000   1.0000   1.0000   1.0000   0.0000   0.0000   0.0000   0.0000

          k = 0.2083 0.4090 0.0000 ( 12464 PWs)   bands (ev):

   -18.1159 -12.4215 -10.5912  -5.8152   0.8772   5.6687   6.3297   6.5811

     occupation numbers 
     1.0000   1.0000   1.0000   1.0000   0.0000   0.0000   0.0000   0.0000

          k = 0.2083 0.4330 0.0000 ( 12463 PWs)   bands (ev):

   -17.7953 -12.8201 -10.7930  -5.4769   0.4514   6.1276   6.7689   7.0590

     occupation numbers 
     1.0000   1.0000   1.0000   1.0000   0.0000   0.0000   0.0000   0.0000

          k = 0.2083 0.4571 0.0000 ( 12460 PWs)   bands (ev):

   -17.4617 -13.2314 -10.9565  -5.1350   0.0335   6.6089   7.2144   7.5627

     occupation numbers 
     1.0000   1.0000   1.0000   1.0000   0.0000   0.0000   0.0000   0.0000

          k = 0.2083 0.4811 0.0000 ( 12457 PWs)   bands (ev):

   -17.1180 -13.6466 -11.0851  -4.7975  -0.3676   7.1097   7.6480   7.9146

     occupation numbers 
     1.0000   1.0000   1.0000   1.0000   0.0000   0.0000   0.0000   0.0000

          k = 0.2083 0.5052 0.0000 ( 12435 PWs)   bands (ev):

   -16.7696 -14.0554 -11.1822  -4.4777  -0.7378   7.6120   7.8986   8.0345

     occupation numbers 
     1.0000   1.0000   1.0000   1.0000   0.0000   0.0000   0.0000   0.0000

          k = 0.2083 0.5292 0.0000 ( 12441 PWs)   bands (ev):

   -16.4292 -14.4413 -11.2500  -4.1988  -1.0533   7.8125   8.2061   8.3230

     occupation numbers 
     1.0000   1.0000   1.0000   1.0000   0.0000   0.0000   0.0000   0.0000

          k = 0.2083 0.5533 0.0000 ( 12427 PWs)   bands (ev):

   -16.1342 -14.7645 -11.2901  -3.9983  -1.2759   7.8058   8.4844   8.7376

     occupation numbers 
     1.0000   1.0000   1.0000   1.0000   0.0000   0.0000   0.0000   0.0000

          k = 0.2083 0.5774 0.0000 ( 12434 PWs)   bands (ev):

   -15.9973 -14.9110 -11.3034  -3.9233  -1.3583   7.8012   8.5335   9.1736

     occupation numbers 
     1.0000   1.0000   1.0000   1.0000   0.0000   0.0000   0.0000   0.0000

          k = 0.2292 0.3969 0.0000 ( 12460 PWs)   bands (ev):

   -18.1250 -12.3510 -10.6611  -5.8229   0.8994   5.6556   6.3145   6.5675

     occupation numbers 
     1.0000   1.0000   1.0000   1.0000   0.0000   0.0000   0.0000   0.0000

          k = 0.2292 0.4210 0.0000 ( 12476 PWs)   bands (ev):

   -17.8133 -12.6850 -10.9307  -5.4901   0.4921   6.1016   6.7373   7.0320

     occupation numbers 
     1.0000   1.0000   1.0000   1.0000   0.0000   0.0000   0.0000   0.0000

          k = 0.2292 0.4450 0.0000 ( 12459 PWs)   bands (ev):

   -17.4878 -13.0439 -11.1527  -5.1501   0.0871   6.5705   7.1639   7.5233

     occupation numbers 
     1.0000   1.0000   1.0000   1.0000   0.0000   0.0000   0.0000   0.0000

          k = 0.2292 0.4691 0.0000 ( 12446 PWs)   bands (ev):

   -17.1509 -13.4215 -11.3289  -4.8085  -0.3095   7.0605   7.5734   8.0403

     occupation numbers 
     1.0000   1.0000   1.0000   1.0000   0.0000   0.0000   0.0000   0.0000

          k = 0.2292 0.4932 0.0000 ( 12425 PWs)   bands (ev):

   -16.8061 -13.8077 -11.4632  -4.4749  -0.6879   7.5677   7.9271   8.4480

     occupation numbers 
     1.0000   1.0000   1.0000   1.0000   0.0000   0.0000   0.0000   0.0000

          k = 0.2292 0.5172 0.0000 ( 12427 PWs)   bands (ev):

   -16.4615 -14.1887 -11.5600  -4.1657  -1.0311   8.0758   8.1780   8.4338

     occupation numbers 
     1.0000   1.0000   1.0000   1.0000   0.0000   0.0000   0.0000   0.0000

          k = 0.2292 0.5413 0.0000 ( 12432 PWs)   bands (ev):

   -16.1375 -14.5395 -11.6227  -3.9109  -1.3088   8.3148   8.3426   8.6736

     occupation numbers 
     1.0000   1.0000   1.0000   1.0000   0.0000   0.0000   0.0000   0.0000

          k = 0.2292 0.5653 0.0000 ( 12432 PWs)   bands (ev):

   -15.8999 -14.7911 -11.6535  -3.7592  -1.4721   8.3482   8.3693   9.1657

     occupation numbers 
     1.0000   1.0000   1.0000   1.0000   0.0000   0.0000   0.0000   0.0000

          k = 0.2500 0.4330 0.0000 ( 12458 PWs)   bands (ev):

   -17.4966 -12.9713 -11.2285  -5.1552   0.1055   6.5576   7.1468   7.5098

     occupation numbers 
     1.0000   1.0000   1.0000   1.0000   0.0000   0.0000   0.0000   0.0000

          k = 0.2500 0.4571 0.0000 ( 12449 PWs)   bands (ev):

   -17.1674 -13.2840 -11.4760  -4.8143  -0.2789   7.0351   7.5350   8.0143

     occupation numbers 
     1.0000   1.0000   1.0000   1.0000   0.0000   0.0000   0.0000   0.0000

          k = 0.2500 0.4811 0.0000 ( 12448 PWs)   bands (ev):

   -16.8287 -13.6206 -11.6707  -4.4740  -0.6550   7.5314   7.8598   8.5442

     occupation numbers 
     1.0000   1.0000   1.0000   1.0000   0.0000   0.0000   0.0000   0.0000

          k = 0.2500 0.5052 0.0000 ( 12438 PWs)   bands (ev):

   -16.4853 -13.9712 -11.8150  -4.1450  -1.0117   8.0405   8.0756   8.9637

     occupation numbers 
     1.0000   1.0000   1.0000   1.0000   0.0000   0.0000   0.0000   0.0000

          k = 0.2500 0.5292 0.0000 ( 12441 PWs)   bands (ev):

   -16.1491 -14.3181 -11.9136  -3.8483  -1.3283   8.1826   8.5437   8.9521

     occupation numbers 
     1.0000   1.0000   1.0000   1.0000   0.0000   0.0000   0.0000   0.0000

          k = 0.2500 0.5533 0.0000 ( 12444 PWs)   bands (ev):

   -15.8543 -14.6216 -11.9709  -3.6244  -1.5642   8.2232   8.8455   9.1367

     occupation numbers 
     1.0000   1.0000   1.0000   1.0000   0.0000   0.0000   0.0000   0.0000

          k = 0.2500 0.5774 0.0000 ( 12440 PWs)   bands (ev):

   -15.7139 -14.7652 -11.9897  -3.5368  -1.6558   8.2329   8.8642   9.4621

     occupation numbers 
     1.0000   1.0000   1.0000   1.0000   0.0000   0.0000   0.0000   0.0000

          k = 0.2708 0.4691 0.0000 ( 12452 PWs)   bands (ev):

   -16.8362 -13.5478 -11.7503  -4.4738  -0.6435   7.5189   7.8368   8.5316

     occupation numbers 
     1.0000   1.0000   1.0000   1.0000   0.0000   0.0000   0.0000   0.0000

          k = 0.2708 0.4932 0.0000 ( 12444 PWs)   bands (ev):

   -16.4978 -13.8373 -11.9674  -4.1352  -1.0005   8.0172   8.0225   9.0735

     occupation numbers 
     1.0000   1.0000   1.0000   1.0000   0.0000   0.0000   0.0000   0.0000

          k = 0.2708 0.5172 0.0000 ( 12442 PWs)   bands (ev):

   -16.1591 -14.1459 -12.1253  -3.8108  -1.3382   8.0991   8.5206   9.4237

     occupation numbers 
     1.0000   1.0000   1.0000   1.0000   0.0000   0.0000   0.0000   0.0000

          k = 0.2708 0.5413 0.0000 ( 12453 PWs)   bands (ev):

   -15.8376 -14.4517 -12.2270  -3.5276  -1.6301   8.1168   9.0015   9.4122

     occupation numbers 
     1.0000   1.0000   1.0000   1.0000   0.0000   0.0000   0.0000   0.0000

          k = 0.2708 0.5653 0.0000 ( 12451 PWs)   bands (ev):

   -15.5939 -14.6890 -12.2764  -3.3446  -1.8174   8.1165   9.2919   9.5291

     occupation numbers 
     1.0000   1.0000   1.0000   1.0000   0.0000   0.0000   0.0000   0.0000

          k = 0.2917 0.5052 0.0000 ( 12454 PWs)   bands (ev):

   -16.1629 -14.0783 -12.2057  -3.7984  -1.3411   8.0705   8.5100   9.6253

     occupation numbers 
     1.0000   1.0000   1.0000   1.0000   0.0000   0.0000   0.0000   0.0000

          k = 0.2917 0.5292 0.0000 ( 12455 PWs)   bands (ev):

   -15.8330 -14.3412 -12.3770  -3.4767  -1.6648   8.0612   8.9923   9.7419

     occupation numbers 
     1.0000   1.0000   1.0000   1.0000   0.0000   0.0000   0.0000   0.0000

          k = 0.2917 0.5533 0.0000 ( 12472 PWs)   bands (ev):

   -15.5345 -14.6009 -12.4789  -3.2056  -1.9368   8.0404   9.4181   9.7321

     occupation numbers 
     1.0000   1.0000   1.0000   1.0000   0.0000   0.0000   0.0000   0.0000

          k = 0.2917 0.5774 0.0000 ( 12476 PWs)   bands (ev):

   -15.3798 -14.7430 -12.5125  -3.0833  -2.0593   8.0313   9.6354   9.7182

     occupation numbers 
     1.0000   1.0000   1.0000   1.0000   0.0000   0.0000   0.0000   0.0000

          k = 0.3125 0.5413 0.0000 ( 12472 PWs)   bands (ev):

   -15.5176 -14.5612 -12.5538  -3.1528  -1.9827   8.0141   9.4209   9.8581

     occupation numbers 
     1.0000   1.0000   1.0000   1.0000   0.0000   0.0000   0.0000   0.0000

          k = 0.3125 0.5653 0.0000 ( 12464 PWs)   bands (ev):

   -15.2500 -14.7790 -12.6447  -2.8839  -2.2484   7.9851   9.7322   9.8571

     occupation numbers 
     1.0000   1.0000   1.0000   1.0000  -0.0000   0.0000   0.0000   0.0000

          k = 0.3333 0.5774 0.0000 ( 12462 PWs)   bands (ev):

   -14.9954 -14.9954 -12.7028  -2.5645  -2.5645   7.9652   9.8673   9.8673

     occupation numbers 
     1.0000   1.0000   1.0000   1.0000   0.0000   0.0000   0.0000   0.0000

     the Fermi energy is    -2.5644 ev
     (compare with:    -2.5645 eV, computed in scf)

     Writing output data file ./tmp/graphene1.save/

     init_run     :      0.91s CPU      1.08s WALL (       1 calls)
     electrons    :   1667.66s CPU   1781.04s WALL (       1 calls)

     Called by init_run:
     wfcinit      :      0.00s CPU      0.00s WALL (       1 calls)
     wfcinit:atom :      0.47s CPU      0.52s WALL (     217 calls)
     wfcinit:wfcr :     38.79s CPU     41.32s WALL (     217 calls)
     potinit      :      0.24s CPU      0.26s WALL (       1 calls)
     hinit0       :      0.36s CPU      0.38s WALL (       1 calls)

     Called by electrons:
     c_bands      :   1667.54s CPU   1780.87s WALL (       1 calls)
     v_of_rho     :      0.17s CPU      0.19s WALL (       1 calls)
     v_h          :      0.01s CPU      0.01s WALL (       1 calls)
     v_xc         :      0.15s CPU      0.18s WALL (       1 calls)
     newd         :      0.04s CPU      0.07s WALL (       1 calls)
     PAW_pot      :      0.05s CPU      0.05s WALL (       1 calls)

     Called by c_bands:
     init_us_2    :      0.52s CPU      0.60s WALL (     217 calls)
     cegterg      :   1621.21s CPU   1718.65s WALL (     847 calls)

     Called by sum_band:

     Called by *egterg:
     cdiaghg      :      3.36s CPU      3.58s WALL (   15101 calls)
     cegterg:over :     73.98s CPU     78.17s WALL (   14884 calls)
     cegterg:upda :     44.86s CPU     47.34s WALL (   14884 calls)
     cegterg:last :    122.48s CPU    128.14s WALL (    8013 calls)
     h_psi        :   1341.73s CPU   1425.40s WALL (   15948 calls)
     s_psi        :     45.22s CPU     47.63s WALL (   15948 calls)
     g_psi        :      5.69s CPU      6.02s WALL (   14884 calls)

     Called by h_psi:
     h_psi:calbec :     49.00s CPU     52.65s WALL (   15948 calls)
     vloc_psi     :   1242.81s CPU   1320.11s WALL (   15948 calls)
     add_vuspsi   :     45.77s CPU     48.38s WALL (   15948 calls)

     General routines
     calbec       :     48.83s CPU     52.53s WALL (   15948 calls)
     fft          :      0.11s CPU      0.12s WALL (      12 calls)
     fftw         :   1050.97s CPU   1117.61s WALL (  133148 calls)
     davcio       :      0.36s CPU     30.39s WALL (     434 calls)

     Parallel routines
     fft_scatt_xy :    197.78s CPU    208.36s WALL (  133160 calls)
     fft_scatt_yz :    148.24s CPU    164.66s WALL (  133160 calls)

     PAW routines
     PAW_pot      :      0.05s CPU      0.05s WALL (       1 calls)

     PWSCF        :  27m52.79s CPU  30m19.78s WALL


   This run was terminated on:  20:14:33  28Aug2023            

=------------------------------------------------------------------------------=
   JOB DONE.
=------------------------------------------------------------------------------=
