
     Program PROJWFC v.6.7MaX starts on 28Aug2023 at 22:10: 0 

     This program is part of the open-source Quantum ESPRESSO suite
     for quantum simulation of materials; please cite
         "P. Giannozzi et al., J. Phys.:Condens. Matter 21 395502 (2009);
         "P. Giannozzi et al., J. Phys.:Condens. Matter 29 465901 (2017);
          URL http://www.quantum-espresso.org", 
     in publications or presentations arising from this work. More details at
     http://www.quantum-espresso.org/quote

     Parallel version (MPI), running on     1 processors

     MPI processes distributed on     1 nodes

     Reading xml data from directory:

     ./tmp/graphene1.save/
     file C.pbe-n-kjpaw_psl.1.0.0.UPF: wavefunction(s)  2S 2P renormalized

     IMPORTANT: XC functional enforced from input :
     Exchange-correlation= PBE
                           (   1   4   3   4   0   0   0)
     Any further DFT definition will be discarded
     Please, verify this is what you really want


     G-vector sticks info
     --------------------
     sticks:   dense  smooth     PW     G-vecs:    dense   smooth      PW
     Sum         625     625    187                99769    99769   16097


     Check: negative core charge=   -0.000002

     negative rho (up, down):  1.259E-04 0.000E+00

     Gaussian broadening (read from input): ngauss,degauss=   0    0.010000


     Calling projwave .... 

  Problem Sizes 
  natomwfc =            8
  nbnd     =            8
  nkstot   =           37
  npwx     =        12567
  nkb      =           16


     Atomic states used for projection
     (read from pseudopotential files):

     state #   1: atom   1 (C  ), wfc  1 (l=0 m= 1)
     state #   2: atom   1 (C  ), wfc  2 (l=1 m= 1)
     state #   3: atom   1 (C  ), wfc  2 (l=1 m= 2)
     state #   4: atom   1 (C  ), wfc  2 (l=1 m= 3)
     state #   5: atom   2 (C  ), wfc  1 (l=0 m= 1)
     state #   6: atom   2 (C  ), wfc  2 (l=1 m= 1)
     state #   7: atom   2 (C  ), wfc  2 (l=1 m= 2)
     state #   8: atom   2 (C  ), wfc  2 (l=1 m= 3)

 k =   0.0000000000  0.0000000000  0.0000000000
==== e(   1) =   -21.61466 eV ==== 
     psi = 0.492*[#   1]+0.492*[#   5]
    |psi|^2 = 0.985
==== e(   2) =    -9.78994 eV ==== 
     psi = 0.475*[#   2]+0.475*[#   6]
    |psi|^2 = 0.949
==== e(   3) =    -5.63715 eV ==== 
     psi = 0.249*[#   3]+0.249*[#   4]+0.249*[#   7]+0.249*[#   8]
    |psi|^2 = 0.997
==== e(   4) =    -5.63715 eV ==== 
     psi = 0.249*[#   3]+0.249*[#   4]+0.249*[#   7]+0.249*[#   8]
    |psi|^2 = 0.997
==== e(   5) =     0.81262 eV ==== 
     psi = 0.003*[#   1]+0.003*[#   5]
    |psi|^2 = 0.006
==== e(   6) =     1.46983 eV ==== 
     psi = 0.008*[#   2]+0.008*[#   6]
    |psi|^2 = 0.016
==== e(   7) =     1.59977 eV ==== 

    |psi|^2 = 0.001
==== e(   8) =     2.61159 eV ==== 
     psi = 0.007*[#   2]+0.007*[#   6]
    |psi|^2 = 0.014

 k =   0.0000000000  0.0641500299  0.0000000000
==== e(   1) =   -21.54436 eV ==== 
     psi = 0.480*[#   1]+0.480*[#   5]+0.006*[#   3]+0.006*[#   4]+0.006*[#   7]
          +0.006*[#   8]
    |psi|^2 = 0.985
==== e(   2) =    -9.70692 eV ==== 
     psi = 0.476*[#   2]+0.476*[#   6]
    |psi|^2 = 0.951
==== e(   3) =    -5.92891 eV ==== 
     psi = 0.245*[#   3]+0.245*[#   4]+0.245*[#   7]+0.245*[#   8]+0.008*[#   1]
          +0.008*[#   5]
    |psi|^2 = 0.997
==== e(   4) =    -5.78377 eV ==== 
     psi = 0.249*[#   3]+0.249*[#   4]+0.249*[#   7]+0.249*[#   8]
    |psi|^2 = 0.997
==== e(   5) =     0.90809 eV ==== 
     psi = 0.002*[#   1]+0.002*[#   5]+0.002*[#   3]+0.002*[#   4]+0.002*[#   7]
          +0.002*[#   8]
    |psi|^2 = 0.012
==== e(   6) =     1.56649 eV ==== 
     psi = 0.008*[#   2]+0.008*[#   6]
    |psi|^2 = 0.015
==== e(   7) =     1.69709 eV ==== 

    |psi|^2 = 0.002
==== e(   8) =     2.70784 eV ==== 
     psi = 0.007*[#   2]+0.007*[#   6]
    |psi|^2 = 0.013

 k =   0.0000000000  0.1283000598  0.0000000000
==== e(   1) =   -21.33379 eV ==== 
     psi = 0.448*[#   1]+0.448*[#   5]+0.022*[#   3]+0.022*[#   4]+0.022*[#   7]
          +0.022*[#   8]
    |psi|^2 = 0.984
==== e(   2) =    -9.45888 eV ==== 
     psi = 0.478*[#   2]+0.478*[#   6]
    |psi|^2 = 0.957
==== e(   3) =    -6.72795 eV ==== 
     psi = 0.234*[#   3]+0.234*[#   4]+0.234*[#   7]+0.234*[#   8]+0.030*[#   1]
          +0.030*[#   5]
    |psi|^2 = 0.997
==== e(   4) =    -6.17417 eV ==== 
     psi = 0.249*[#   3]+0.249*[#   4]+0.249*[#   7]+0.249*[#   8]
    |psi|^2 = 0.997
==== e(   5) =     1.19447 eV ==== 
     psi = 0.006*[#   3]+0.006*[#   4]+0.006*[#   7]+0.006*[#   8]
    |psi|^2 = 0.024
==== e(   6) =     1.85629 eV ==== 
     psi = 0.007*[#   2]+0.007*[#   6]
    |psi|^2 = 0.014
==== e(   7) =     1.98914 eV ==== 

    |psi|^2 = 0.003
==== e(   8) =     2.99655 eV ==== 
     psi = 0.006*[#   2]+0.006*[#   6]
    |psi|^2 = 0.012

 k =   0.0000000000  0.1924500897  0.0000000000
==== e(   1) =   -20.98406 eV ==== 
     psi = 0.409*[#   1]+0.409*[#   5]+0.041*[#   3]+0.041*[#   4]+0.041*[#   7]
          +0.041*[#   8]
    |psi|^2 = 0.983
==== e(   2) =    -9.04898 eV ==== 
     psi = 0.483*[#   2]+0.483*[#   6]
    |psi|^2 = 0.965
==== e(   3) =    -7.87116 eV ==== 
     psi = 0.220*[#   3]+0.220*[#   4]+0.220*[#   7]+0.220*[#   8]+0.058*[#   1]
          +0.058*[#   5]
    |psi|^2 = 0.995
==== e(   4) =    -6.70117 eV ==== 
     psi = 0.249*[#   3]+0.249*[#   4]+0.249*[#   7]+0.249*[#   8]
    |psi|^2 = 0.997
==== e(   5) =     1.67152 eV ==== 
     psi = 0.008*[#   3]+0.008*[#   4]+0.008*[#   7]+0.008*[#   8]
    |psi|^2 = 0.032
==== e(   6) =     2.33863 eV ==== 
     psi = 0.006*[#   2]+0.006*[#   6]
    |psi|^2 = 0.011
==== e(   7) =     2.47590 eV ==== 

    |psi|^2 = 0.004
==== e(   8) =     3.47667 eV ==== 
     psi = 0.005*[#   2]+0.005*[#   6]
    |psi|^2 = 0.010

 k =   0.0000000000  0.2566001196  0.0000000000
==== e(   1) =   -20.49712 eV ==== 
     psi = 0.370*[#   1]+0.370*[#   5]+0.060*[#   3]+0.060*[#   4]+0.060*[#   7]
          +0.060*[#   8]
    |psi|^2 = 0.982
==== e(   2) =    -9.20488 eV ==== 
     psi = 0.206*[#   3]+0.206*[#   4]+0.206*[#   7]+0.206*[#   8]+0.085*[#   1]
          +0.085*[#   5]
    |psi|^2 = 0.993
==== e(   3) =    -8.48354 eV ==== 
     psi = 0.488*[#   2]+0.488*[#   6]
    |psi|^2 = 0.975
==== e(   4) =    -7.26299 eV ==== 
     psi = 0.249*[#   3]+0.249*[#   4]+0.249*[#   7]+0.249*[#   8]
    |psi|^2 = 0.997
==== e(   5) =     2.33847 eV ==== 
     psi = 0.008*[#   3]+0.008*[#   4]+0.008*[#   7]+0.008*[#   8]
    |psi|^2 = 0.033
==== e(   6) =     3.01045 eV ==== 
     psi = 0.005*[#   2]+0.005*[#   6]
    |psi|^2 = 0.010
==== e(   7) =     3.15724 eV ==== 

    |psi|^2 = 0.003
==== e(   8) =     4.14074 eV ==== 
     psi = 0.011*[#   2]+0.011*[#   6]
    |psi|^2 = 0.022

 k =   0.0000000000  0.3207501495  0.0000000000
==== e(   1) =   -19.87625 eV ==== 
     psi = 0.337*[#   1]+0.337*[#   5]+0.077*[#   3]+0.077*[#   4]+0.077*[#   7]
          +0.077*[#   8]
    |psi|^2 = 0.982
==== e(   2) =   -10.61826 eV ==== 
     psi = 0.193*[#   3]+0.193*[#   4]+0.193*[#   7]+0.193*[#   8]+0.110*[#   1]
          +0.110*[#   5]
    |psi|^2 = 0.992
==== e(   3) =    -7.78741 eV ==== 
     psi = 0.249*[#   3]+0.249*[#   4]+0.249*[#   7]+0.249*[#   8]
    |psi|^2 = 0.997
==== e(   4) =    -7.77416 eV ==== 
     psi = 0.492*[#   2]+0.492*[#   6]
    |psi|^2 = 0.984
==== e(   5) =     3.19329 eV ==== 
     psi = 0.006*[#   3]+0.006*[#   4]+0.006*[#   7]+0.006*[#   8]
    |psi|^2 = 0.023
==== e(   6) =     3.51323 eV ==== 
     psi = 0.415*[#   2]+0.415*[#   6]
    |psi|^2 = 0.830
==== e(   7) =     3.93048 eV ==== 
     psi = 0.060*[#   2]+0.060*[#   6]
    |psi|^2 = 0.120
==== e(   8) =     4.03240 eV ==== 

    |psi|^2 = 0.002

 k =   0.0000000000  0.3849001795  0.0000000000
==== e(   1) =   -19.12697 eV ==== 
     psi = 0.310*[#   1]+0.310*[#   5]+0.091*[#   3]+0.091*[#   4]+0.091*[#   7]
          +0.091*[#   8]
    |psi|^2 = 0.983
==== e(   2) =   -12.03657 eV ==== 
     psi = 0.182*[#   3]+0.182*[#   4]+0.182*[#   7]+0.182*[#   8]+0.131*[#   1]
          +0.131*[#   5]
    |psi|^2 = 0.990
==== e(   3) =    -8.22875 eV ==== 
     psi = 0.249*[#   3]+0.249*[#   4]+0.249*[#   7]+0.249*[#   8]
    |psi|^2 = 0.997
==== e(   4) =    -6.94342 eV ==== 
     psi = 0.496*[#   2]+0.496*[#   6]
    |psi|^2 = 0.991
==== e(   5) =     2.10792 eV ==== 
     psi = 0.472*[#   2]+0.472*[#   6]
    |psi|^2 = 0.944
==== e(   6) =     4.21963 eV ==== 
     psi = 0.014*[#   1]+0.014*[#   5]
    |psi|^2 = 0.029
==== e(   7) =     4.60780 eV ==== 
     psi = 0.273*[#   1]+0.273*[#   5]+0.084*[#   3]+0.084*[#   4]+0.084*[#   7]
          +0.084*[#   8]
    |psi|^2 = 0.881
==== e(   8) =     4.95002 eV ==== 
     psi = 0.004*[#   2]+0.004*[#   6]
    |psi|^2 = 0.008

 k =   0.0000000000  0.4490502094  0.0000000000
==== e(   1) =   -18.26066 eV ==== 
     psi = 0.290*[#   1]+0.290*[#   5]+0.101*[#   3]+0.101*[#   4]+0.101*[#   7]
          +0.101*[#   8]
    |psi|^2 = 0.984
==== e(   2) =   -13.40552 eV ==== 
     psi = 0.173*[#   3]+0.173*[#   4]+0.173*[#   7]+0.173*[#   8]+0.148*[#   1]
          +0.148*[#   5]
    |psi|^2 = 0.988
==== e(   3) =    -8.55942 eV ==== 
     psi = 0.249*[#   3]+0.249*[#   4]+0.249*[#   7]+0.249*[#   8]
    |psi|^2 = 0.996
==== e(   4) =    -6.04194 eV ==== 
     psi = 0.498*[#   2]+0.498*[#   6]
    |psi|^2 = 0.995
==== e(   5) =     0.72710 eV ==== 
     psi = 0.474*[#   2]+0.474*[#   6]
    |psi|^2 = 0.949
==== e(   6) =     4.39229 eV ==== 
     psi = 0.313*[#   1]+0.313*[#   5]+0.063*[#   3]+0.063*[#   4]+0.063*[#   7]
          +0.063*[#   8]
    |psi|^2 = 0.880
==== e(   7) =     5.47904 eV ==== 
     psi = 0.007*[#   3]+0.007*[#   4]+0.007*[#   7]+0.007*[#   8]+0.003*[#   1]
          +0.003*[#   5]
    |psi|^2 = 0.033
==== e(   8) =     6.19114 eV ==== 
     psi = 0.002*[#   2]+0.002*[#   6]
    |psi|^2 = 0.004

 k =   0.0000000000  0.5132002393  0.0000000000
==== e(   1) =   -17.31519 eV ==== 
     psi = 0.285*[#   1]+0.285*[#   5]+0.104*[#   3]+0.104*[#   4]+0.104*[#   7]
          +0.104*[#   8]
    |psi|^2 = 0.988
==== e(   2) =   -14.66160 eV ==== 
     psi = 0.171*[#   3]+0.171*[#   4]+0.171*[#   7]+0.171*[#   8]+0.151*[#   1]
          +0.151*[#   5]
    |psi|^2 = 0.985
==== e(   3) =    -8.76335 eV ==== 
     psi = 0.249*[#   3]+0.249*[#   4]+0.249*[#   7]+0.249*[#   8]
    |psi|^2 = 0.996
==== e(   4) =    -5.20690 eV ==== 
     psi = 0.498*[#   2]+0.498*[#   6]
    |psi|^2 = 0.997
==== e(   5) =    -0.41310 eV ==== 
     psi = 0.476*[#   2]+0.476*[#   6]
    |psi|^2 = 0.952
==== e(   6) =     4.27859 eV ==== 
     psi = 0.333*[#   1]+0.333*[#   5]+0.058*[#   3]+0.058*[#   4]+0.058*[#   7]
          +0.058*[#   8]
    |psi|^2 = 0.898
==== e(   7) =     6.87947 eV ==== 
     psi = 0.002*[#   3]+0.002*[#   4]+0.002*[#   7]+0.002*[#   8]
    |psi|^2 = 0.011
==== e(   8) =     7.61265 eV ==== 
     psi = 0.002*[#   2]+0.002*[#   6]
    |psi|^2 = 0.004

 k =   0.0000000000 -0.5773502692  0.0000000000
==== e(   1) =   -16.64305 eV ==== 
     psi = 0.320*[#   1]+0.320*[#   5]+0.088*[#   3]+0.088*[#   4]+0.088*[#   7]
          +0.088*[#   8]
    |psi|^2 = 0.994
==== e(   2) =   -15.43870 eV ==== 
     psi = 0.187*[#   3]+0.187*[#   4]+0.187*[#   7]+0.187*[#   8]+0.115*[#   1]
          +0.115*[#   5]
    |psi|^2 = 0.979
==== e(   3) =    -8.83219 eV ==== 
     psi = 0.249*[#   3]+0.249*[#   4]+0.249*[#   7]+0.249*[#   8]
    |psi|^2 = 0.996
==== e(   4) =    -4.81026 eV ==== 
     psi = 0.499*[#   2]+0.499*[#   6]
    |psi|^2 = 0.998
==== e(   5) =    -0.91426 eV ==== 
     psi = 0.476*[#   2]+0.476*[#   6]
    |psi|^2 = 0.952
==== e(   6) =     4.23890 eV ==== 
     psi = 0.339*[#   1]+0.339*[#   5]+0.056*[#   3]+0.056*[#   4]+0.056*[#   7]
          +0.056*[#   8]
    |psi|^2 = 0.900
==== e(   7) =     8.37332 eV ==== 
     psi = 0.004*[#   1]+0.004*[#   5]
    |psi|^2 = 0.010
==== e(   8) =     8.52083 eV ==== 
     psi = 0.002*[#   3]+0.002*[#   4]+0.002*[#   7]+0.002*[#   8]
    |psi|^2 = 0.009

 k =   0.0555555556  0.0962250449  0.0000000000
==== e(   1) =   -21.40392 eV ==== 
     psi = 0.458*[#   1]+0.458*[#   5]+0.017*[#   3]+0.017*[#   4]+0.017*[#   7]
          +0.017*[#   8]
    |psi|^2 = 0.984
==== e(   2) =    -9.54139 eV ==== 
     psi = 0.478*[#   2]+0.478*[#   6]
    |psi|^2 = 0.955
==== e(   3) =    -6.44931 eV ==== 
     psi = 0.238*[#   3]+0.238*[#   4]+0.238*[#   7]+0.238*[#   8]+0.022*[#   1]
          +0.022*[#   5]
    |psi|^2 = 0.997
==== e(   4) =    -6.07755 eV ==== 
     psi = 0.248*[#   3]+0.248*[#   4]+0.248*[#   7]+0.248*[#   8]+0.001*[#   1]
          +0.001*[#   5]
    |psi|^2 = 0.997
==== e(   5) =     1.09904 eV ==== 
     psi = 0.005*[#   3]+0.005*[#   4]+0.005*[#   7]+0.005*[#   8]
    |psi|^2 = 0.020
==== e(   6) =     1.75972 eV ==== 
     psi = 0.007*[#   2]+0.007*[#   6]
    |psi|^2 = 0.014
==== e(   7) =     1.89179 eV ==== 

    |psi|^2 = 0.003
==== e(   8) =     2.90035 eV ==== 
     psi = 0.006*[#   2]+0.006*[#   6]
    |psi|^2 = 0.012

 k =   0.0555555556  0.1603750748  0.0000000000
==== e(   1) =   -21.12377 eV ==== 
     psi = 0.423*[#   1]+0.423*[#   5]+0.034*[#   3]+0.034*[#   4]+0.034*[#   7]
          +0.034*[#   8]
    |psi|^2 = 0.984
==== e(   2) =    -9.21233 eV ==== 
     psi = 0.481*[#   2]+0.481*[#   6]
    |psi|^2 = 0.962
==== e(   3) =    -7.37089 eV ==== 
     psi = 0.227*[#   3]+0.227*[#   4]+0.227*[#   7]+0.227*[#   8]+0.045*[#   1]
          +0.045*[#   5]
    |psi|^2 = 0.997
==== e(   4) =    -6.58696 eV ==== 
     psi = 0.247*[#   3]+0.247*[#   4]+0.247*[#   7]+0.247*[#   8]+0.004*[#   1]
          +0.004*[#   5]
    |psi|^2 = 0.996
==== e(   5) =     1.48083 eV ==== 
     psi = 0.008*[#   3]+0.008*[#   4]+0.008*[#   7]+0.008*[#   8]
    |psi|^2 = 0.030
==== e(   6) =     2.14584 eV ==== 
     psi = 0.006*[#   2]+0.006*[#   6]
    |psi|^2 = 0.012
==== e(   7) =     2.28123 eV ==== 

    |psi|^2 = 0.004
==== e(   8) =     3.28511 eV ==== 
     psi = 0.005*[#   2]+0.005*[#   6]
    |psi|^2 = 0.010

 k =   0.0555555556  0.2245251047  0.0000000000
==== e(   1) =   -20.70543 eV ==== 
     psi = 0.385*[#   1]+0.385*[#   5]+0.053*[#   3]+0.053*[#   4]+0.053*[#   7]
          +0.053*[#   8]
    |psi|^2 = 0.983
==== e(   2) =    -8.72434 eV ==== 
     psi = 0.486*[#   2]+0.486*[#   6]
    |psi|^2 = 0.971
==== e(   3) =    -8.56875 eV ==== 
     psi = 0.213*[#   3]+0.213*[#   4]+0.213*[#   7]+0.213*[#   8]+0.072*[#   1]
          +0.072*[#   5]
    |psi|^2 = 0.995
==== e(   4) =    -7.17361 eV ==== 
     psi = 0.246*[#   3]+0.246*[#   4]+0.246*[#   7]+0.246*[#   8]+0.005*[#   1]
          +0.005*[#   5]
    |psi|^2 = 0.996
==== e(   5) =     2.05305 eV ==== 
     psi = 0.009*[#   3]+0.009*[#   4]+0.009*[#   7]+0.009*[#   8]
    |psi|^2 = 0.035
==== e(   6) =     2.72366 eV ==== 
     psi = 0.005*[#   2]+0.005*[#   6]
    |psi|^2 = 0.010
==== e(   7) =     2.86534 eV ==== 

    |psi|^2 = 0.004
==== e(   8) =     3.85955 eV ==== 
     psi = 0.004*[#   2]+0.004*[#   6]
    |psi|^2 = 0.009

 k =   0.0555555556  0.2886751346  0.0000000000
==== e(   1) =   -20.15149 eV ==== 
     psi = 0.350*[#   1]+0.350*[#   5]+0.071*[#   3]+0.071*[#   4]+0.071*[#   7]
          +0.071*[#   8]
    |psi|^2 = 0.982
==== e(   2) =    -9.91620 eV ==== 
     psi = 0.199*[#   3]+0.199*[#   4]+0.199*[#   7]+0.199*[#   8]+0.098*[#   1]
          +0.098*[#   5]
    |psi|^2 = 0.993
==== e(   3) =    -8.08590 eV ==== 
     psi = 0.490*[#   2]+0.490*[#   6]
    |psi|^2 = 0.981
==== e(   4) =    -7.74421 eV ==== 
     psi = 0.246*[#   3]+0.246*[#   4]+0.246*[#   7]+0.246*[#   8]+0.006*[#   1]
          +0.006*[#   5]
    |psi|^2 = 0.996
==== e(   5) =     2.81448 eV ==== 
     psi = 0.007*[#   3]+0.007*[#   4]+0.007*[#   7]+0.007*[#   8]
    |psi|^2 = 0.030
==== e(   6) =     3.48184 eV ==== 
     psi = 0.011*[#   2]+0.011*[#   6]
    |psi|^2 = 0.022
==== e(   7) =     3.64407 eV ==== 

    |psi|^2 = 0.002
==== e(   8) =     4.19363 eV ==== 
     psi = 0.453*[#   2]+0.453*[#   6]
    |psi|^2 = 0.906

 k =   0.0555555556  0.3528251645  0.0000000000
==== e(   1) =   -19.46619 eV ==== 
     psi = 0.320*[#   1]+0.320*[#   5]+0.085*[#   3]+0.085*[#   4]+0.085*[#   7]
          +0.085*[#   8]
    |psi|^2 = 0.982
==== e(   2) =   -11.31674 eV ==== 
     psi = 0.187*[#   3]+0.187*[#   4]+0.187*[#   7]+0.187*[#   8]+0.121*[#   1]
          +0.121*[#   5]
    |psi|^2 = 0.992
==== e(   3) =    -8.24340 eV ==== 
     psi = 0.246*[#   3]+0.246*[#   4]+0.246*[#   7]+0.246*[#   8]+0.007*[#   1]
          +0.007*[#   5]
    |psi|^2 = 0.996
==== e(   4) =    -7.31286 eV ==== 
     psi = 0.494*[#   2]+0.494*[#   6]
    |psi|^2 = 0.989
==== e(   5) =     2.77302 eV ==== 
     psi = 0.472*[#   2]+0.472*[#   6]
    |psi|^2 = 0.944
==== e(   6) =     3.76201 eV ==== 
     psi = 0.004*[#   3]+0.004*[#   4]+0.004*[#   7]+0.004*[#   8]
    |psi|^2 = 0.018
==== e(   7) =     4.46908 eV ==== 
     psi = 0.006*[#   2]+0.006*[#   6]
    |psi|^2 = 0.012
==== e(   8) =     4.61493 eV ==== 
     psi = 0.003*[#   1]+0.003*[#   5]
    |psi|^2 = 0.006

 k =   0.0555555556  0.4169751944  0.0000000000
==== e(   1) =   -18.65730 eV ==== 
     psi = 0.297*[#   1]+0.297*[#   5]+0.097*[#   3]+0.097*[#   4]+0.097*[#   7]
          +0.097*[#   8]
    |psi|^2 = 0.983
==== e(   2) =   -12.70258 eV ==== 
     psi = 0.177*[#   3]+0.177*[#   4]+0.177*[#   7]+0.177*[#   8]+0.140*[#   1]
          +0.140*[#   5]
    |psi|^2 = 0.990
==== e(   3) =    -8.63861 eV ==== 
     psi = 0.245*[#   3]+0.245*[#   4]+0.245*[#   7]+0.245*[#   8]+0.007*[#   1]
          +0.007*[#   5]
    |psi|^2 = 0.996
==== e(   4) =    -6.43788 eV ==== 
     psi = 0.497*[#   2]+0.497*[#   6]
    |psi|^2 = 0.994
==== e(   5) =     1.36749 eV ==== 
     psi = 0.475*[#   2]+0.475*[#   6]
    |psi|^2 = 0.951
==== e(   6) =     4.75121 eV ==== 
     psi = 0.215*[#   1]+0.215*[#   5]+0.042*[#   3]+0.042*[#   4]+0.042*[#   7]
          +0.042*[#   8]
    |psi|^2 = 0.596
==== e(   7) =     4.95741 eV ==== 
     psi = 0.079*[#   1]+0.079*[#   5]+0.038*[#   3]+0.038*[#   4]+0.038*[#   7]
          +0.038*[#   8]
    |psi|^2 = 0.312
==== e(   8) =     5.61489 eV ==== 
     psi = 0.003*[#   2]+0.003*[#   6]
    |psi|^2 = 0.005

 k =   0.0555555556  0.4811252243  0.0000000000
==== e(   1) =   -17.74391 eV ==== 
     psi = 0.283*[#   1]+0.283*[#   5]+0.105*[#   3]+0.105*[#   4]+0.105*[#   7]
          +0.105*[#   8]
    |psi|^2 = 0.986
==== e(   2) =   -14.01779 eV ==== 
     psi = 0.171*[#   3]+0.171*[#   4]+0.171*[#   7]+0.171*[#   8]+0.152*[#   1]
          +0.152*[#   5]
    |psi|^2 = 0.987
==== e(   3) =    -8.91077 eV ==== 
     psi = 0.245*[#   3]+0.245*[#   4]+0.245*[#   7]+0.245*[#   8]+0.007*[#   1]
          +0.007*[#   5]
    |psi|^2 = 0.995
==== e(   4) =    -5.54132 eV ==== 
     psi = 0.498*[#   2]+0.498*[#   6]
    |psi|^2 = 0.996
==== e(   5) =     0.08713 eV ==== 
     psi = 0.477*[#   2]+0.477*[#   6]
    |psi|^2 = 0.953
==== e(   6) =     4.64562 eV ==== 
     psi = 0.316*[#   1]+0.316*[#   5]+0.064*[#   3]+0.064*[#   4]+0.064*[#   7]
          +0.064*[#   8]
    |psi|^2 = 0.887
==== e(   7) =     6.22668 eV ==== 
     psi = 0.004*[#   3]+0.004*[#   4]+0.004*[#   7]+0.004*[#   8]+0.001*[#   1]
          +0.001*[#   5]
    |psi|^2 = 0.018
==== e(   8) =     6.94373 eV ==== 
     psi = 0.002*[#   2]+0.002*[#   6]
    |psi|^2 = 0.004

 k =   0.0555555556  0.5452752542  0.0000000000
==== e(   1) =   -16.82555 eV ==== 
     psi = 0.297*[#   1]+0.297*[#   5]+0.099*[#   3]+0.099*[#   4]+0.099*[#   7]
          +0.099*[#   8]
    |psi|^2 = 0.991
==== e(   2) =   -15.14184 eV ==== 
     psi = 0.177*[#   3]+0.177*[#   4]+0.177*[#   7]+0.177*[#   8]+0.137*[#   1]
          +0.137*[#   5]
    |psi|^2 = 0.982
==== e(   3) =    -9.04924 eV ==== 
     psi = 0.245*[#   3]+0.245*[#   4]+0.245*[#   7]+0.245*[#   8]+0.007*[#   1]
          +0.007*[#   5]
    |psi|^2 = 0.995
==== e(   4) =    -4.85655 eV ==== 
     psi = 0.499*[#   2]+0.499*[#   6]
    |psi|^2 = 0.997
==== e(   5) =    -0.79805 eV ==== 
     psi = 0.477*[#   2]+0.477*[#   6]
    |psi|^2 = 0.955
==== e(   6) =     4.56766 eV ==== 
     psi = 0.328*[#   1]+0.328*[#   5]+0.060*[#   3]+0.060*[#   4]+0.060*[#   7]
          +0.060*[#   8]
    |psi|^2 = 0.895
==== e(   7) =     7.70863 eV ==== 
     psi = 0.001*[#   1]+0.001*[#   3]+0.001*[#   4]+0.001*[#   5]+0.001*[#   7]
          +0.001*[#   8]
    |psi|^2 = 0.009
==== e(   8) =     8.43388 eV ==== 
     psi = 0.003*[#   2]+0.003*[#   6]
    |psi|^2 = 0.005

 k =   0.1111111111  0.1924500897  0.0000000000
==== e(   1) =   -20.77502 eV ==== 
     psi = 0.390*[#   1]+0.390*[#   5]+0.051*[#   3]+0.051*[#   4]+0.051*[#   7]
          +0.051*[#   8]
    |psi|^2 = 0.983
==== e(   2) =    -8.80496 eV ==== 
     psi = 0.485*[#   2]+0.485*[#   6]
    |psi|^2 = 0.970
==== e(   3) =    -8.25386 eV ==== 
     psi = 0.217*[#   3]+0.217*[#   4]+0.217*[#   7]+0.217*[#   8]+0.065*[#   1]
          +0.065*[#   5]
    |psi|^2 = 0.997
==== e(   4) =    -7.25096 eV ==== 
     psi = 0.243*[#   3]+0.243*[#   4]+0.243*[#   7]+0.243*[#   8]+0.011*[#   1]
          +0.011*[#   5]
    |psi|^2 = 0.993
==== e(   5) =     1.95795 eV ==== 
     psi = 0.009*[#   3]+0.009*[#   4]+0.009*[#   7]+0.009*[#   8]
    |psi|^2 = 0.035
==== e(   6) =     2.62779 eV ==== 
     psi = 0.005*[#   2]+0.005*[#   6]
    |psi|^2 = 0.010
==== e(   7) =     2.76811 eV ==== 

    |psi|^2 = 0.004
==== e(   8) =     3.76488 eV ==== 
     psi = 0.004*[#   2]+0.004*[#   6]
    |psi|^2 = 0.008

 k =   0.1111111111  0.2566001196  0.0000000000
==== e(   1) =   -20.28964 eV ==== 
     psi = 0.357*[#   1]+0.357*[#   5]+0.067*[#   3]+0.067*[#   4]+0.067*[#   7]
          +0.067*[#   8]
    |psi|^2 = 0.982
==== e(   2) =    -9.35999 eV ==== 
     psi = 0.205*[#   3]+0.205*[#   4]+0.205*[#   7]+0.205*[#   8]+0.088*[#   1]
          +0.088*[#   5]
    |psi|^2 = 0.996
==== e(   3) =    -8.24297 eV ==== 
     psi = 0.489*[#   2]+0.489*[#   6]
    |psi|^2 = 0.979
==== e(   4) =    -7.95419 eV ==== 
     psi = 0.240*[#   3]+0.240*[#   4]+0.240*[#   7]+0.240*[#   8]+0.017*[#   1]
          +0.017*[#   5]
    |psi|^2 = 0.992
==== e(   5) =     2.62500 eV ==== 
     psi = 0.008*[#   3]+0.008*[#   4]+0.008*[#   7]+0.008*[#   8]
    |psi|^2 = 0.033
==== e(   6) =     3.30006 eV ==== 
     psi = 0.004*[#   2]+0.004*[#   6]
    |psi|^2 = 0.008
==== e(   7) =     3.44955 eV ==== 

    |psi|^2 = 0.003
==== e(   8) =     4.42563 eV ==== 
     psi = 0.048*[#   2]+0.048*[#   6]
    |psi|^2 = 0.095

 k =   0.1111111111  0.3207501495  0.0000000000
==== e(   1) =   -19.67109 eV ==== 
     psi = 0.328*[#   1]+0.328*[#   5]+0.082*[#   3]+0.082*[#   4]+0.082*[#   7]
          +0.082*[#   8]
    |psi|^2 = 0.982
==== e(   2) =   -10.62823 eV ==== 
     psi = 0.193*[#   3]+0.193*[#   4]+0.193*[#   7]+0.193*[#   8]+0.111*[#   1]
          +0.111*[#   5]
    |psi|^2 = 0.994
==== e(   3) =    -8.56797 eV ==== 
     psi = 0.238*[#   3]+0.238*[#   4]+0.238*[#   7]+0.238*[#   8]+0.020*[#   1]
          +0.020*[#   5]
    |psi|^2 = 0.993
==== e(   4) =    -7.53766 eV ==== 
     psi = 0.493*[#   2]+0.493*[#   6]
    |psi|^2 = 0.987
==== e(   5) =     3.26678 eV ==== 
     psi = 0.477*[#   2]+0.477*[#   6]
    |psi|^2 = 0.954
==== e(   6) =     3.48038 eV ==== 
     psi = 0.006*[#   3]+0.006*[#   4]+0.006*[#   7]+0.006*[#   8]
    |psi|^2 = 0.026
==== e(   7) =     4.17229 eV ==== 
     psi = 0.007*[#   2]+0.007*[#   6]
    |psi|^2 = 0.014
==== e(   8) =     4.32545 eV ==== 

    |psi|^2 = 0.002

 k =   0.1111111111  0.3849001795  0.0000000000
==== e(   1) =   -18.92524 eV ==== 
     psi = 0.303*[#   1]+0.303*[#   5]+0.094*[#   3]+0.094*[#   4]+0.094*[#   7]
          +0.094*[#   8]
    |psi|^2 = 0.983
==== e(   2) =   -11.96182 eV ==== 
     psi = 0.182*[#   3]+0.182*[#   4]+0.182*[#   7]+0.182*[#   8]+0.132*[#   1]
          +0.132*[#   5]
    |psi|^2 = 0.992
==== e(   3) =    -9.05757 eV ==== 
     psi = 0.238*[#   3]+0.238*[#   4]+0.238*[#   7]+0.238*[#   8]+0.022*[#   1]
          +0.022*[#   5]
    |psi|^2 = 0.994
==== e(   4) =    -6.71063 eV ==== 
     psi = 0.496*[#   2]+0.496*[#   6]
    |psi|^2 = 0.993
==== e(   5) =     1.91960 eV ==== 
     psi = 0.480*[#   2]+0.480*[#   6]
    |psi|^2 = 0.960
==== e(   6) =     4.52029 eV ==== 
     psi = 0.003*[#   3]+0.003*[#   4]+0.003*[#   7]+0.003*[#   8]
    |psi|^2 = 0.014
==== e(   7) =     5.22025 eV ==== 
     psi = 0.002*[#   2]+0.002*[#   6]
    |psi|^2 = 0.005
==== e(   8) =     5.39393 eV ==== 
     psi = 0.004*[#   1]+0.004*[#   5]
    |psi|^2 = 0.009

 k =   0.1111111111  0.4490502094  0.0000000000
==== e(   1) =   -18.06392 eV ==== 
     psi = 0.284*[#   1]+0.284*[#   5]+0.104*[#   3]+0.104*[#   4]+0.104*[#   7]
          +0.104*[#   8]
    |psi|^2 = 0.985
==== e(   2) =   -13.28107 eV ==== 
     psi = 0.173*[#   3]+0.173*[#   4]+0.173*[#   7]+0.173*[#   8]+0.149*[#   1]
          +0.149*[#   5]
    |psi|^2 = 0.990
==== e(   3) =    -9.41301 eV ==== 
     psi = 0.237*[#   3]+0.237*[#   4]+0.237*[#   7]+0.237*[#   8]+0.023*[#   1]
          +0.023*[#   5]
    |psi|^2 = 0.994
==== e(   4) =    -5.80960 eV ==== 
     psi = 0.498*[#   2]+0.498*[#   6]
    |psi|^2 = 0.996
==== e(   5) =     0.60565 eV ==== 
     psi = 0.480*[#   2]+0.480*[#   6]
    |psi|^2 = 0.961
==== e(   6) =     5.56325 eV ==== 
     psi = 0.234*[#   1]+0.234*[#   5]+0.056*[#   3]+0.056*[#   4]+0.056*[#   7]
          +0.056*[#   8]
    |psi|^2 = 0.691
==== e(   7) =     5.78909 eV ==== 
     psi = 0.049*[#   1]+0.049*[#   5]+0.026*[#   3]+0.026*[#   4]+0.026*[#   7]
          +0.026*[#   8]
    |psi|^2 = 0.200
==== e(   8) =     6.45057 eV ==== 
     psi = 0.002*[#   2]+0.002*[#   6]
    |psi|^2 = 0.003

 k =   0.1111111111  0.5132002393  0.0000000000
==== e(   1) =   -17.12542 eV ==== 
     psi = 0.278*[#   1]+0.278*[#   5]+0.108*[#   3]+0.108*[#   4]+0.108*[#   7]
          +0.108*[#   8]
    |psi|^2 = 0.988
==== e(   2) =   -14.50780 eV ==== 
     psi = 0.170*[#   3]+0.170*[#   4]+0.170*[#   7]+0.170*[#   8]+0.153*[#   1]
          +0.153*[#   5]
    |psi|^2 = 0.986
==== e(   3) =    -9.62856 eV ==== 
     psi = 0.237*[#   3]+0.237*[#   4]+0.237*[#   7]+0.237*[#   8]+0.023*[#   1]
          +0.023*[#   5]
    |psi|^2 = 0.994
==== e(   4) =    -4.96565 eV ==== 
     psi = 0.498*[#   2]+0.498*[#   6]
    |psi|^2 = 0.997
==== e(   5) =    -0.50261 eV ==== 
     psi = 0.481*[#   2]+0.481*[#   6]
    |psi|^2 = 0.961
==== e(   6) =     5.47903 eV ==== 
     psi = 0.300*[#   1]+0.300*[#   5]+0.069*[#   3]+0.069*[#   4]+0.069*[#   7]
          +0.069*[#   8]
    |psi|^2 = 0.877
==== e(   7) =     7.15255 eV ==== 
     psi = 0.002*[#   3]+0.002*[#   4]+0.002*[#   7]+0.002*[#   8]+0.001*[#   1]
          +0.001*[#   5]
    |psi|^2 = 0.012
==== e(   8) =     7.83603 eV ==== 
     psi = 0.002*[#   2]+0.002*[#   6]
    |psi|^2 = 0.004

 k =   0.1111111111  0.5773502692  0.0000000000
==== e(   1) =   -16.45914 eV ==== 
     psi = 0.309*[#   1]+0.309*[#   5]+0.094*[#   3]+0.094*[#   4]+0.094*[#   7]
          +0.094*[#   8]
    |psi|^2 = 0.993
==== e(   2) =   -15.27223 eV ==== 
     psi = 0.185*[#   3]+0.185*[#   4]+0.185*[#   7]+0.185*[#   8]+0.121*[#   1]
          +0.121*[#   5]
    |psi|^2 = 0.981
==== e(   3) =    -9.70080 eV ==== 
     psi = 0.237*[#   3]+0.237*[#   4]+0.237*[#   7]+0.237*[#   8]+0.023*[#   1]
          +0.023*[#   5]
    |psi|^2 = 0.994
==== e(   4) =    -4.55683 eV ==== 
     psi = 0.499*[#   2]+0.499*[#   6]
    |psi|^2 = 0.998
==== e(   5) =    -1.00233 eV ==== 
     psi = 0.481*[#   2]+0.481*[#   6]
    |psi|^2 = 0.961
==== e(   6) =     5.43958 eV ==== 
     psi = 0.306*[#   1]+0.306*[#   5]+0.067*[#   3]+0.067*[#   4]+0.067*[#   7]
          +0.067*[#   8]
    |psi|^2 = 0.880
==== e(   7) =     8.61506 eV ==== 
     psi = 0.007*[#   1]+0.007*[#   5]+0.001*[#   3]+0.001*[#   4]+0.001*[#   7]
          +0.001*[#   8]
    |psi|^2 = 0.019
==== e(   8) =     8.78236 eV ==== 
     psi = 0.002*[#   3]+0.002*[#   4]+0.002*[#   7]+0.002*[#   8]
    |psi|^2 = 0.009

 k =   0.1666666667  0.2886751346  0.0000000000
==== e(   1) =   -19.73960 eV ==== 
     psi = 0.330*[#   1]+0.330*[#   5]+0.080*[#   3]+0.080*[#   4]+0.080*[#   7]
          +0.080*[#   8]
    |psi|^2 = 0.982
==== e(   2) =   -10.26532 eV ==== 
     psi = 0.195*[#   3]+0.195*[#   4]+0.195*[#   7]+0.195*[#   8]+0.109*[#   1]
          +0.109*[#   5]
    |psi|^2 = 0.996
==== e(   3) =    -8.82313 eV ==== 
     psi = 0.235*[#   3]+0.235*[#   4]+0.235*[#   7]+0.235*[#   8]+0.025*[#   1]
          +0.025*[#   5]
    |psi|^2 = 0.990
==== e(   4) =    -7.61310 eV ==== 
     psi = 0.493*[#   2]+0.493*[#   6]
    |psi|^2 = 0.986
==== e(   5) =     3.38604 eV ==== 
     psi = 0.007*[#   3]+0.007*[#   4]+0.007*[#   7]+0.007*[#   8]
    |psi|^2 = 0.028
==== e(   6) =     3.45983 eV ==== 
     psi = 0.486*[#   2]+0.486*[#   6]
    |psi|^2 = 0.971
==== e(   7) =     4.06656 eV ==== 
     psi = 0.002*[#   2]+0.002*[#   6]
    |psi|^2 = 0.005
==== e(   8) =     4.22838 eV ==== 

    |psi|^2 = 0.003

 k =   0.1666666667  0.3528251645  0.0000000000
==== e(   1) =   -19.06014 eV ==== 
     psi = 0.306*[#   1]+0.306*[#   5]+0.093*[#   3]+0.093*[#   4]+0.093*[#   7]
          +0.093*[#   8]
    |psi|^2 = 0.983
==== e(   2) =   -11.34184 eV ==== 
     psi = 0.184*[#   3]+0.184*[#   4]+0.184*[#   7]+0.184*[#   8]+0.130*[#   1]
          +0.130*[#   5]
    |psi|^2 = 0.995
==== e(   3) =    -9.55349 eV ==== 
     psi = 0.233*[#   3]+0.233*[#   4]+0.233*[#   7]+0.233*[#   8]+0.030*[#   1]
          +0.030*[#   5]
    |psi|^2 = 0.990
==== e(   4) =    -6.84946 eV ==== 
     psi = 0.496*[#   2]+0.496*[#   6]
    |psi|^2 = 0.992
==== e(   5) =     2.25441 eV ==== 
     psi = 0.486*[#   2]+0.486*[#   6]
    |psi|^2 = 0.972
==== e(   6) =     4.33374 eV ==== 
     psi = 0.005*[#   3]+0.005*[#   4]+0.005*[#   7]+0.005*[#   8]
    |psi|^2 = 0.019
==== e(   7) =     5.01765 eV ==== 
     psi = 0.001*[#   2]+0.001*[#   6]
    |psi|^2 = 0.003
==== e(   8) =     5.20162 eV ==== 

    |psi|^2 = 0.001

 k =   0.1666666667  0.4169751944  0.0000000000
==== e(   1) =   -18.25983 eV ==== 
     psi = 0.285*[#   1]+0.285*[#   5]+0.104*[#   3]+0.104*[#   4]+0.104*[#   7]
          +0.104*[#   8]
    |psi|^2 = 0.984
==== e(   2) =   -12.54343 eV ==== 
     psi = 0.175*[#   3]+0.175*[#   4]+0.175*[#   7]+0.175*[#   8]+0.147*[#   1]
          +0.147*[#   5]
    |psi|^2 = 0.993
==== e(   3) =   -10.07159 eV ==== 
     psi = 0.231*[#   3]+0.231*[#   4]+0.231*[#   7]+0.231*[#   8]+0.034*[#   1]
          +0.034*[#   5]
    |psi|^2 = 0.991
==== e(   4) =    -5.98108 eV ==== 
     psi = 0.498*[#   2]+0.498*[#   6]
    |psi|^2 = 0.995
==== e(   5) =     1.01401 eV ==== 
     psi = 0.486*[#   2]+0.486*[#   6]
    |psi|^2 = 0.972
==== e(   6) =     5.46305 eV ==== 
     psi = 0.002*[#   3]+0.002*[#   4]+0.002*[#   7]+0.002*[#   8]
    |psi|^2 = 0.010
==== e(   7) =     6.14375 eV ==== 

    |psi|^2 = 0.002
==== e(   8) =     6.36760 eV ==== 
     psi = 0.001*[#   1]+0.001*[#   5]
    |psi|^2 = 0.003

 k =   0.1666666667  0.4811252243  0.0000000000
==== e(   1) =   -17.35874 eV ==== 
     psi = 0.271*[#   1]+0.271*[#   5]+0.111*[#   3]+0.111*[#   4]+0.111*[#   7]
          +0.111*[#   8]
    |psi|^2 = 0.987
==== e(   2) =   -13.75917 eV ==== 
     psi = 0.168*[#   3]+0.168*[#   4]+0.168*[#   7]+0.168*[#   8]+0.158*[#   1]
          +0.158*[#   5]
    |psi|^2 = 0.990
==== e(   3) =   -10.40066 eV ==== 
     psi = 0.229*[#   3]+0.229*[#   4]+0.229*[#   7]+0.229*[#   8]+0.037*[#   1]
          +0.037*[#   5]
    |psi|^2 = 0.992
==== e(   4) =    -5.07814 eV ==== 
     psi = 0.498*[#   2]+0.498*[#   6]
    |psi|^2 = 0.996
==== e(   5) =    -0.15919 eV ==== 
     psi = 0.486*[#   2]+0.486*[#   6]
    |psi|^2 = 0.972
==== e(   6) =     6.70721 eV ==== 
     psi = 0.106*[#   1]+0.106*[#   5]+0.025*[#   3]+0.025*[#   4]+0.025*[#   7]
          +0.025*[#   8]
    |psi|^2 = 0.312
==== e(   7) =     6.87702 eV ==== 
     psi = 0.158*[#   1]+0.158*[#   5]+0.058*[#   3]+0.058*[#   4]+0.058*[#   7]
          +0.058*[#   8]
    |psi|^2 = 0.550
==== e(   8) =     7.40834 eV ==== 
     psi = 0.001*[#   2]+0.001*[#   6]
    |psi|^2 = 0.003

 k =   0.1666666667  0.5452752542  0.0000000000
==== e(   1) =   -16.45501 eV ==== 
     psi = 0.280*[#   1]+0.280*[#   5]+0.108*[#   3]+0.108*[#   4]+0.108*[#   7]
          +0.108*[#   8]
    |psi|^2 = 0.991
==== e(   2) =   -14.83244 eV ==== 
     psi = 0.172*[#   3]+0.172*[#   4]+0.172*[#   7]+0.172*[#   8]+0.148*[#   1]
          +0.148*[#   5]
    |psi|^2 = 0.985
==== e(   3) =   -10.56142 eV ==== 
     psi = 0.229*[#   3]+0.229*[#   4]+0.229*[#   7]+0.229*[#   8]+0.038*[#   1]
          +0.038*[#   5]
    |psi|^2 = 0.992
==== e(   4) =    -4.36129 eV ==== 
     psi = 0.499*[#   2]+0.499*[#   6]
    |psi|^2 = 0.997
==== e(   5) =    -1.01858 eV ==== 
     psi = 0.486*[#   2]+0.486*[#   6]
    |psi|^2 = 0.971
==== e(   6) =     6.72315 eV ==== 
     psi = 0.276*[#   1]+0.276*[#   5]+0.075*[#   3]+0.075*[#   4]+0.075*[#   7]
          +0.075*[#   8]
    |psi|^2 = 0.853
==== e(   7) =     8.23262 eV ==== 
     psi = 0.004*[#   1]+0.004*[#   5]+0.002*[#   3]+0.002*[#   4]+0.002*[#   7]
          +0.002*[#   8]
    |psi|^2 = 0.015
==== e(   8) =     8.59917 eV ==== 
     psi = 0.005*[#   2]+0.005*[#   6]
    |psi|^2 = 0.010

 k =   0.2222222222  0.3849001795  0.0000000000
==== e(   1) =   -18.32567 eV ==== 
     psi = 0.285*[#   1]+0.285*[#   5]+0.103*[#   3]+0.103*[#   4]+0.103*[#   7]
          +0.103*[#   8]
    |psi|^2 = 0.984
==== e(   2) =   -12.13512 eV ==== 
     psi = 0.173*[#   3]+0.173*[#   4]+0.173*[#   7]+0.173*[#   8]+0.152*[#   1]
          +0.152*[#   5]
    |psi|^2 = 0.995
==== e(   3) =   -10.46453 eV ==== 
     psi = 0.231*[#   3]+0.231*[#   4]+0.231*[#   7]+0.231*[#   8]+0.032*[#   1]
          +0.032*[#   5]
    |psi|^2 = 0.989
==== e(   4) =    -6.03987 eV ==== 
     psi = 0.498*[#   2]+0.498*[#   6]
    |psi|^2 = 0.995
==== e(   5) =     1.17266 eV ==== 
     psi = 0.489*[#   2]+0.489*[#   6]
    |psi|^2 = 0.978
==== e(   6) =     5.37023 eV ==== 
     psi = 0.003*[#   3]+0.003*[#   4]+0.003*[#   7]+0.003*[#   8]
    |psi|^2 = 0.012
==== e(   7) =     6.03847 eV ==== 

    |psi|^2 = 0.001
==== e(   8) =     6.27145 eV ==== 

    |psi|^2 = 0.001

 k =   0.2222222222  0.4490502094  0.0000000000
==== e(   1) =   -17.48111 eV ==== 
     psi = 0.269*[#   1]+0.269*[#   5]+0.112*[#   3]+0.112*[#   4]+0.112*[#   7]
          +0.112*[#   8]
    |psi|^2 = 0.986
==== e(   2) =   -13.09644 eV ==== 
     psi = 0.169*[#   1]+0.169*[#   5]+0.164*[#   3]+0.164*[#   4]+0.164*[#   7]
          +0.164*[#   8]
    |psi|^2 = 0.994
==== e(   3) =   -11.09799 eV ==== 
     psi = 0.230*[#   3]+0.230*[#   4]+0.230*[#   7]+0.230*[#   8]+0.035*[#   1]
          +0.035*[#   5]
    |psi|^2 = 0.988
==== e(   4) =    -5.14616 eV ==== 
     psi = 0.498*[#   2]+0.498*[#   6]
    |psi|^2 = 0.996
==== e(   5) =     0.07291 eV ==== 
     psi = 0.491*[#   2]+0.491*[#   6]
    |psi|^2 = 0.982
==== e(   6) =     6.58054 eV ==== 
     psi = 0.002*[#   1]+0.002*[#   5]+0.001*[#   3]+0.001*[#   4]+0.001*[#   7]
          +0.001*[#   8]
    |psi|^2 = 0.008
==== e(   7) =     7.17706 eV ==== 

    |psi|^2 = 0.000
==== e(   8) =     7.53395 eV ==== 
     psi = 0.001*[#   1]+0.001*[#   5]
    |psi|^2 = 0.003

 k =   0.2222222222  0.5132002393  0.0000000000
==== e(   1) =   -16.56497 eV ==== 
     psi = 0.261*[#   1]+0.261*[#   5]+0.117*[#   3]+0.117*[#   4]+0.117*[#   7]
          +0.117*[#   8]
    |psi|^2 = 0.989
==== e(   2) =   -14.14506 eV ==== 
     psi = 0.174*[#   1]+0.174*[#   5]+0.160*[#   3]+0.160*[#   4]+0.160*[#   7]
          +0.160*[#   8]
    |psi|^2 = 0.990
==== e(   3) =   -11.43612 eV ==== 
     psi = 0.227*[#   3]+0.227*[#   4]+0.227*[#   7]+0.227*[#   8]+0.039*[#   1]
          +0.039*[#   5]
    |psi|^2 = 0.989
==== e(   4) =    -4.27043 eV ==== 
     psi = 0.498*[#   2]+0.498*[#   6]
    |psi|^2 = 0.996
==== e(   5) =    -0.93300 eV ==== 
     psi = 0.491*[#   2]+0.491*[#   6]
    |psi|^2 = 0.982
==== e(   6) =     7.92040 eV ==== 
     psi = 0.029*[#   1]+0.029*[#   5]+0.007*[#   3]+0.007*[#   4]+0.007*[#   7]
          +0.007*[#   8]
    |psi|^2 = 0.085
==== e(   7) =     8.14784 eV ==== 
     psi = 0.002*[#   2]+0.002*[#   6]
    |psi|^2 = 0.004
==== e(   8) =     8.25584 eV ==== 
     psi = 0.215*[#   1]+0.215*[#   5]+0.077*[#   3]+0.077*[#   4]+0.077*[#   7]
          +0.077*[#   8]
    |psi|^2 = 0.738

 k =   0.2222222222  0.5773502692  0.0000000000
==== e(   1) =   -15.90854 eV ==== 
     psi = 0.280*[#   1]+0.280*[#   5]+0.108*[#   3]+0.108*[#   4]+0.108*[#   7]
          +0.108*[#   8]
    |psi|^2 = 0.993
==== e(   2) =   -14.85661 eV ==== 
     psi = 0.170*[#   3]+0.170*[#   4]+0.170*[#   7]+0.170*[#   8]+0.154*[#   1]
          +0.154*[#   5]
    |psi|^2 = 0.986
==== e(   3) =   -11.54103 eV ==== 
     psi = 0.227*[#   3]+0.227*[#   4]+0.227*[#   7]+0.227*[#   8]+0.041*[#   1]
          +0.041*[#   5]
    |psi|^2 = 0.989
==== e(   4) =    -3.80210 eV ==== 
     psi = 0.498*[#   2]+0.498*[#   6]
    |psi|^2 = 0.997
==== e(   5) =    -1.44612 eV ==== 
     psi = 0.491*[#   2]+0.491*[#   6]
    |psi|^2 = 0.982
==== e(   6) =     8.16725 eV ==== 
     psi = 0.248*[#   1]+0.248*[#   5]+0.079*[#   3]+0.079*[#   4]+0.079*[#   7]
          +0.079*[#   8]
    |psi|^2 = 0.811
==== e(   7) =     8.42691 eV ==== 
     psi = 0.004*[#   2]+0.004*[#   6]
    |psi|^2 = 0.007
==== e(   8) =     9.26966 eV ==== 
     psi = 0.025*[#   1]+0.025*[#   5]+0.008*[#   3]+0.008*[#   4]+0.008*[#   7]
          +0.008*[#   8]
    |psi|^2 = 0.084

 k =   0.2777777778  0.4811252243  0.0000000000
==== e(   1) =   -16.61194 eV ==== 
     psi = 0.256*[#   1]+0.256*[#   5]+0.119*[#   3]+0.119*[#   4]+0.119*[#   7]
          +0.119*[#   8]
    |psi|^2 = 0.989
==== e(   2) =   -13.72986 eV ==== 
     psi = 0.197*[#   1]+0.197*[#   5]+0.150*[#   3]+0.150*[#   4]+0.150*[#   7]
          +0.150*[#   8]
    |psi|^2 = 0.994
==== e(   3) =   -11.91099 eV ==== 
     psi = 0.234*[#   3]+0.234*[#   4]+0.234*[#   7]+0.234*[#   8]+0.025*[#   1]
          +0.025*[#   5]
    |psi|^2 = 0.985
==== e(   4) =    -4.24696 eV ==== 
     psi = 0.498*[#   2]+0.498*[#   6]
    |psi|^2 = 0.996
==== e(   5) =    -0.88202 eV ==== 
     psi = 0.494*[#   2]+0.494*[#   6]
    |psi|^2 = 0.987
==== e(   6) =     7.84854 eV ==== 
     psi = 0.006*[#   1]+0.006*[#   5]+0.001*[#   3]+0.001*[#   4]+0.001*[#   7]
          +0.001*[#   8]
    |psi|^2 = 0.017
==== e(   7) =     7.97179 eV ==== 

    |psi|^2 = 0.000
==== e(   8) =     8.88956 eV ==== 
     psi = 0.002*[#   1]+0.002*[#   5]
    |psi|^2 = 0.008

 k =   0.2777777778  0.5452752542  0.0000000000
==== e(   1) =   -15.73521 eV ==== 
     psi = 0.254*[#   1]+0.254*[#   5]+0.121*[#   3]+0.121*[#   4]+0.121*[#   7]
          +0.121*[#   8]
    |psi|^2 = 0.992
==== e(   2) =   -14.49906 eV ==== 
     psi = 0.205*[#   1]+0.205*[#   5]+0.146*[#   3]+0.146*[#   4]+0.146*[#   7]
          +0.146*[#   8]
    |psi|^2 = 0.992
==== e(   3) =   -12.31900 eV ==== 
     psi = 0.236*[#   3]+0.236*[#   4]+0.236*[#   7]+0.236*[#   8]+0.021*[#   1]
          +0.021*[#   5]
    |psi|^2 = 0.984
==== e(   4) =    -3.42038 eV ==== 
     psi = 0.498*[#   2]+0.498*[#   6]
    |psi|^2 = 0.996
==== e(   5) =    -1.73182 eV ==== 
     psi = 0.495*[#   2]+0.495*[#   6]
    |psi|^2 = 0.990
==== e(   6) =     8.09049 eV ==== 

    |psi|^2 = 0.001
==== e(   7) =     9.14746 eV ==== 
     psi = 0.047*[#   1]+0.047*[#   5]+0.015*[#   3]+0.015*[#   4]+0.015*[#   7]
          +0.015*[#   8]
    |psi|^2 = 0.153
==== e(   8) =     9.53982 eV ==== 
     psi = 0.189*[#   1]+0.189*[#   5]+0.067*[#   3]+0.067*[#   4]+0.067*[#   7]
          +0.067*[#   8]
    |psi|^2 = 0.647

 k =   0.3333333333  0.5773502692  0.0000000000
==== e(   1) =   -14.99542 eV ==== 
     psi = 0.240*[#   1]+0.240*[#   5]+0.128*[#   3]+0.128*[#   4]+0.128*[#   7]
          +0.128*[#   8]
    |psi|^2 = 0.994
==== e(   2) =   -14.99542 eV ==== 
     psi = 0.240*[#   1]+0.240*[#   5]+0.128*[#   3]+0.128*[#   4]+0.128*[#   7]
          +0.128*[#   8]
    |psi|^2 = 0.994
==== e(   3) =   -12.70289 eV ==== 
     psi = 0.245*[#   3]+0.245*[#   4]+0.245*[#   7]+0.245*[#   8]
    |psi|^2 = 0.981
==== e(   4) =    -2.56450 eV ==== 
     psi = 0.497*[#   2]+0.497*[#   6]
    |psi|^2 = 0.994
==== e(   5) =    -2.56450 eV ==== 
     psi = 0.497*[#   2]+0.497*[#   6]
    |psi|^2 = 0.994
==== e(   6) =     7.96522 eV ==== 

    |psi|^2 = 0.000
==== e(   7) =     9.86731 eV ==== 
     psi = 0.122*[#   1]+0.122*[#   5]+0.044*[#   3]+0.044*[#   4]+0.044*[#   7]
          +0.044*[#   8]
    |psi|^2 = 0.419
==== e(   8) =     9.86733 eV ==== 
     psi = 0.122*[#   1]+0.122*[#   5]+0.044*[#   3]+0.044*[#   4]+0.044*[#   7]
          +0.044*[#   8]
    |psi|^2 = 0.420

Lowdin Charges: 

     Atom #   1: total charge =   3.9574, s =  0.9214, 
     Atom #   1: total charge =   3.9574, p =  3.0359, pz=  0.9874, px=  1.0243, py=  1.0243, 
     Atom #   2: total charge =   3.9574, s =  0.9214, 
     Atom #   2: total charge =   3.9574, p =  3.0359, pz=  0.9874, px=  1.0243, py=  1.0243, 
     Spilling Parameter:   0.0107

     PROJWFC      :      2.34s CPU      2.82s WALL


   This run was terminated on:  22:10: 3  28Aug2023            

=------------------------------------------------------------------------------=
   JOB DONE.
=------------------------------------------------------------------------------=
