
     Program PWSCF v.6.7MaX starts on 28Aug2023 at 21:33:58 

     This program is part of the open-source Quantum ESPRESSO suite
     for quantum simulation of materials; please cite
         "P. Giannozzi et al., J. Phys.:Condens. Matter 21 395502 (2009);
         "P. Giannozzi et al., J. Phys.:Condens. Matter 29 465901 (2017);
          URL http://www.quantum-espresso.org", 
     in publications or presentations arising from this work. More details at
     http://www.quantum-espresso.org/quote

     Parallel version (MPI), running on     1 processors

     MPI processes distributed on     1 nodes
     Waiting for input...
     Reading input from standard input

     Current dimensions of program PWSCF are:
     Max number of different atomic species (ntypx) = 10
     Max number of k-points (npk) =  40000
     Max angular momentum in pseudopotentials (lmaxx) =  3
     file C.pbe-n-kjpaw_psl.1.0.0.UPF: wavefunction(s)  2S 2P renormalized

     Subspace diagonalization in iterative solution of the eigenvalue problem:
     a serial algorithm will be used


     G-vector sticks info
     --------------------
     sticks:   dense  smooth     PW     G-vecs:    dense   smooth      PW
     Sum         625     625    187                99769    99769   16097



     bravais-lattice index     =           12
     lattice parameter (alat)  =       4.7546  a.u.
     unit-cell volume          =     739.9093 (a.u.)^3
     number of atoms/cell      =            2
     number of atomic types    =            1
     number of electrons       =         8.00
     number of Kohn-Sham states=            8
     kinetic-energy cutoff     =     100.0000  Ry
     charge density cutoff     =     400.0000  Ry
     scf convergence threshold =      1.0E-10
     mixing beta               =       0.5000
     number of iterations used =            8  plain     mixing
     Exchange-correlation= SLA  PW   PBX  PBC
                           (   1   4   3   4   0   0   0)

     celldm(1)=   4.754551  celldm(2)=   1.000000  celldm(3)=   7.949126
     celldm(4)=  -0.500000  celldm(5)=   0.000000  celldm(6)=   0.000000

     crystal axes: (cart. coord. in units of alat)
               a(1) = (   1.000000   0.000000   0.000000 )  
               a(2) = (  -0.500000   0.866025   0.000000 )  
               a(3) = (   0.000000   0.000000   7.949126 )  

     reciprocal axes: (cart. coord. in units 2 pi/alat)
               b(1) = (  1.000000  0.577350 -0.000000 )  
               b(2) = (  0.000000  1.154701  0.000000 )  
               b(3) = (  0.000000 -0.000000  0.125800 )  


     PseudoPot. # 1 for C  read from file:
     ./Pseudo/C.pbe-n-kjpaw_psl.1.0.0.UPF
     MD5 check sum: ecdf03482cb4269f2fcfa842d572f30f
     Pseudo is Projector augmented-wave + core cor, Zval =  4.0
     Generated using &quot;atomic&quot; code by A. Dal Corso  v.6.3
     Shape of augmentation charge: PSQ
     Using radial grid of 1073 points,  4 beta functions with: 
                l(1) =   0
                l(2) =   0
                l(3) =   1
                l(4) =   1
     Q(r) pseudized with 0 coefficients 


     atomic species   valence    mass     pseudopotential
        C              4.00    12.01070     C ( 1.00)

     24 Sym. Ops., with inversion, found (18 have fractional translation)



   Cartesian axes

     site n.     atom                  positions (alat units)
         1           C   tau(   1) = (   0.0000000   0.0000000   1.9872814  )
         2           C   tau(   2) = (  -0.0000000   0.5773503   1.9872814  )

     number of k points=    37  Gaussian smearing, width (Ry)=  0.0200
                       cart. coord. in units 2pi/alat
        k(    1) = (   0.0000000   0.0000000   0.0000000), wk =   0.0061728
        k(    2) = (   0.0000000   0.0641500   0.0000000), wk =   0.0370370
        k(    3) = (   0.0000000   0.1283001   0.0000000), wk =   0.0370370
        k(    4) = (   0.0000000   0.1924501   0.0000000), wk =   0.0370370
        k(    5) = (   0.0000000   0.2566001   0.0000000), wk =   0.0370370
        k(    6) = (   0.0000000   0.3207501   0.0000000), wk =   0.0370370
        k(    7) = (   0.0000000   0.3849002   0.0000000), wk =   0.0370370
        k(    8) = (   0.0000000   0.4490502   0.0000000), wk =   0.0370370
        k(    9) = (   0.0000000   0.5132002   0.0000000), wk =   0.0370370
        k(   10) = (   0.0000000  -0.5773503   0.0000000), wk =   0.0185185
        k(   11) = (   0.0555556   0.0962250   0.0000000), wk =   0.0370370
        k(   12) = (   0.0555556   0.1603751   0.0000000), wk =   0.0740741
        k(   13) = (   0.0555556   0.2245251   0.0000000), wk =   0.0740741
        k(   14) = (   0.0555556   0.2886751   0.0000000), wk =   0.0740741
        k(   15) = (   0.0555556   0.3528252   0.0000000), wk =   0.0740741
        k(   16) = (   0.0555556   0.4169752   0.0000000), wk =   0.0740741
        k(   17) = (   0.0555556   0.4811252   0.0000000), wk =   0.0740741
        k(   18) = (   0.0555556   0.5452753   0.0000000), wk =   0.0740741
        k(   19) = (   0.1111111   0.1924501   0.0000000), wk =   0.0370370
        k(   20) = (   0.1111111   0.2566001   0.0000000), wk =   0.0740741
        k(   21) = (   0.1111111   0.3207501   0.0000000), wk =   0.0740741
        k(   22) = (   0.1111111   0.3849002   0.0000000), wk =   0.0740741
        k(   23) = (   0.1111111   0.4490502   0.0000000), wk =   0.0740741
        k(   24) = (   0.1111111   0.5132002   0.0000000), wk =   0.0740741
        k(   25) = (   0.1111111   0.5773503   0.0000000), wk =   0.0370370
        k(   26) = (   0.1666667   0.2886751   0.0000000), wk =   0.0370370
        k(   27) = (   0.1666667   0.3528252   0.0000000), wk =   0.0740741
        k(   28) = (   0.1666667   0.4169752   0.0000000), wk =   0.0740741
        k(   29) = (   0.1666667   0.4811252   0.0000000), wk =   0.0740741
        k(   30) = (   0.1666667   0.5452753   0.0000000), wk =   0.0740741
        k(   31) = (   0.2222222   0.3849002   0.0000000), wk =   0.0370370
        k(   32) = (   0.2222222   0.4490502   0.0000000), wk =   0.0740741
        k(   33) = (   0.2222222   0.5132002   0.0000000), wk =   0.0740741
        k(   34) = (   0.2222222   0.5773503   0.0000000), wk =   0.0370370
        k(   35) = (   0.2777778   0.4811252   0.0000000), wk =   0.0370370
        k(   36) = (   0.2777778   0.5452753   0.0000000), wk =   0.0740741
        k(   37) = (   0.3333333   0.5773503   0.0000000), wk =   0.0123457

     Dense  grid:    99769 G-vectors     FFT dimensions: (  36,  36, 250)

     Estimated max dynamical RAM per process >     193.71 MB

     Check: negative core charge=   -0.000002

     Initial potential from superposition of free atoms

     starting charge    7.99992, renormalised to    8.00000

     negative rho (up, down):  1.100E-04 0.000E+00
     Starting wfcs are    8 randomized atomic wfcs
     Checking if some PAW data can be deallocated... 

     total cpu time spent up to now is       10.2 secs

     Self-consistent Calculation

     iteration #  1     ecut=   100.00 Ry     beta= 0.50
     Davidson diagonalization with overlap
     ethr =  1.00E-02,  avg # of iterations =  5.5

     negative rho (up, down):  1.086E-04 0.000E+00

     total cpu time spent up to now is       44.7 secs

     total energy              =     -36.87979724 Ry
     estimated scf accuracy    <       0.16043464 Ry

     iteration #  2     ecut=   100.00 Ry     beta= 0.50
     Davidson diagonalization with overlap
     ethr =  2.01E-03,  avg # of iterations =  2.7

     negative rho (up, down):  1.196E-04 0.000E+00

     total cpu time spent up to now is       65.4 secs

     total energy              =     -36.88111672 Ry
     estimated scf accuracy    <       0.01751424 Ry

     iteration #  3     ecut=   100.00 Ry     beta= 0.50
     Davidson diagonalization with overlap
     ethr =  2.19E-04,  avg # of iterations =  9.4

     negative rho (up, down):  1.221E-04 0.000E+00

     total cpu time spent up to now is       95.2 secs

     total energy              =     -36.88433095 Ry
     estimated scf accuracy    <       0.00067403 Ry

     iteration #  4     ecut=   100.00 Ry     beta= 0.50
     Davidson diagonalization with overlap
     ethr =  8.43E-06,  avg # of iterations =  8.7

     negative rho (up, down):  1.248E-04 0.000E+00

     total cpu time spent up to now is      124.1 secs

     total energy              =     -36.88428756 Ry
     estimated scf accuracy    <       0.00043896 Ry

     iteration #  5     ecut=   100.00 Ry     beta= 0.50
     Davidson diagonalization with overlap
     ethr =  5.49E-06,  avg # of iterations =  3.2

     negative rho (up, down):  1.255E-04 0.000E+00

     total cpu time spent up to now is      144.0 secs

     total energy              =     -36.88436515 Ry
     estimated scf accuracy    <       0.00000123 Ry

     iteration #  6     ecut=   100.00 Ry     beta= 0.50
     Davidson diagonalization with overlap
     ethr =  1.53E-08,  avg # of iterations =  3.1

     negative rho (up, down):  1.260E-04 0.000E+00

     total cpu time spent up to now is      164.0 secs

     total energy              =     -36.88436602 Ry
     estimated scf accuracy    <       0.00000005 Ry

     iteration #  7     ecut=   100.00 Ry     beta= 0.50
     Davidson diagonalization with overlap
     ethr =  5.79E-10,  avg # of iterations =  2.6

     negative rho (up, down):  1.259E-04 0.000E+00

     total cpu time spent up to now is      182.3 secs

     total energy              =     -36.88436603 Ry
     estimated scf accuracy    <          4.8E-09 Ry

     iteration #  8     ecut=   100.00 Ry     beta= 0.50
     Davidson diagonalization with overlap
     ethr =  5.94E-11,  avg # of iterations =  2.0

     negative rho (up, down):  1.259E-04 0.000E+00

     total cpu time spent up to now is      199.0 secs

     total energy              =     -36.88436603 Ry
     estimated scf accuracy    <          1.5E-09 Ry

     iteration #  9     ecut=   100.00 Ry     beta= 0.50
     Davidson diagonalization with overlap
     ethr =  1.85E-11,  avg # of iterations =  2.0

     negative rho (up, down):  1.259E-04 0.000E+00

     total cpu time spent up to now is      218.3 secs

     End of self-consistent calculation

          k = 0.0000 0.0000 0.0000 ( 12475 PWs)   bands (ev):

   -21.6147  -9.7899  -5.6372  -5.6372   0.8126   1.4698   1.5998   2.6116

          k = 0.0000 0.0642 0.0000 ( 12543 PWs)   bands (ev):

   -21.5444  -9.7069  -5.9289  -5.7838   0.9081   1.5665   1.6971   2.7078

          k = 0.0000 0.1283 0.0000 ( 12561 PWs)   bands (ev):

   -21.3338  -9.4589  -6.7280  -6.1742   1.1945   1.8563   1.9891   2.9965

          k = 0.0000 0.1925 0.0000 ( 12567 PWs)   bands (ev):

   -20.9841  -9.0490  -7.8712  -6.7012   1.6715   2.3386   2.4759   3.4767

          k = 0.0000 0.2566 0.0000 ( 12555 PWs)   bands (ev):

   -20.4971  -9.2049  -8.4835  -7.2630   2.3385   3.0104   3.1572   4.1407

          k = 0.0000 0.3208 0.0000 ( 12535 PWs)   bands (ev):

   -19.8762 -10.6183  -7.7874  -7.7742   3.1933   3.5132   3.9305   4.0324

          k = 0.0000 0.3849 0.0000 ( 12501 PWs)   bands (ev):

   -19.1270 -12.0366  -8.2288  -6.9434   2.1079   4.2196   4.6078   4.9500

          k = 0.0000 0.4491 0.0000 ( 12485 PWs)   bands (ev):

   -18.2607 -13.4055  -8.5594  -6.0419   0.7271   4.3923   5.4790   6.1911

          k = 0.0000 0.5132 0.0000 ( 12457 PWs)   bands (ev):

   -17.3152 -14.6616  -8.7633  -5.2069  -0.4131   4.2786   6.8795   7.6127

          k = 0.0000-0.5774 0.0000 ( 12458 PWs)   bands (ev):

   -16.6430 -15.4387  -8.8322  -4.8103  -0.9143   4.2389   8.3733   8.5208

          k = 0.0556 0.0962 0.0000 ( 12549 PWs)   bands (ev):

   -21.4039  -9.5414  -6.4493  -6.0776   1.0990   1.7597   1.8918   2.9004

          k = 0.0556 0.1604 0.0000 ( 12549 PWs)   bands (ev):

   -21.1238  -9.2123  -7.3709  -6.5870   1.4808   2.1458   2.2812   3.2851

          k = 0.0556 0.2245 0.0000 ( 12565 PWs)   bands (ev):

   -20.7054  -8.7243  -8.5687  -7.1736   2.0530   2.7237   2.8653   3.8595

          k = 0.0556 0.2887 0.0000 ( 12549 PWs)   bands (ev):

   -20.1515  -9.9162  -8.0859  -7.7442   2.8145   3.4818   3.6441   4.1936

          k = 0.0556 0.3528 0.0000 ( 12515 PWs)   bands (ev):

   -19.4662 -11.3167  -8.2434  -7.3129   2.7730   3.7620   4.4691   4.6149

          k = 0.0556 0.4170 0.0000 ( 12499 PWs)   bands (ev):

   -18.6573 -12.7026  -8.6386  -6.4379   1.3675   4.7512   4.9574   5.6149

          k = 0.0556 0.4811 0.0000 ( 12469 PWs)   bands (ev):

   -17.7439 -14.0178  -8.9108  -5.5413   0.0871   4.6456   6.2267   6.9437

          k = 0.0556 0.5453 0.0000 ( 12455 PWs)   bands (ev):

   -16.8255 -15.1418  -9.0492  -4.8565  -0.7980   4.5677   7.7086   8.4339

          k = 0.1111 0.1925 0.0000 ( 12545 PWs)   bands (ev):

   -20.7750  -8.8050  -8.2539  -7.2510   1.9579   2.6278   2.7681   3.7649

          k = 0.1111 0.2566 0.0000 ( 12532 PWs)   bands (ev):

   -20.2896  -9.3600  -8.2430  -7.9542   2.6250   3.3001   3.4495   4.4256

          k = 0.1111 0.3208 0.0000 ( 12529 PWs)   bands (ev):

   -19.6711 -10.6282  -8.5680  -7.5377   3.2668   3.4804   4.1723   4.3254

          k = 0.1111 0.3849 0.0000 ( 12493 PWs)   bands (ev):

   -18.9252 -11.9618  -9.0576  -6.7106   1.9196   4.5203   5.2202   5.3939

          k = 0.1111 0.4491 0.0000 ( 12475 PWs)   bands (ev):

   -18.0639 -13.2811  -9.4130  -5.8096   0.6057   5.5633   5.7891   6.4506

          k = 0.1111 0.5132 0.0000 ( 12462 PWs)   bands (ev):

   -17.1254 -14.5078  -9.6286  -4.9657  -0.5026   5.4790   7.1525   7.8360

          k = 0.1111 0.5774 0.0000 ( 12462 PWs)   bands (ev):

   -16.4591 -15.2722  -9.7008  -4.5568  -1.0023   5.4396   8.6151   8.7824

          k = 0.1667 0.2887 0.0000 ( 12523 PWs)   bands (ev):

   -19.7396 -10.2653  -8.8231  -7.6131   3.3860   3.4598   4.0666   4.2284

          k = 0.1667 0.3528 0.0000 ( 12493 PWs)   bands (ev):

   -19.0601 -11.3418  -9.5535  -6.8495   2.2544   4.3337   5.0177   5.2016

          k = 0.1667 0.4170 0.0000 ( 12462 PWs)   bands (ev):

   -18.2598 -12.5434 -10.0716  -5.9811   1.0140   5.4630   6.1437   6.3676

          k = 0.1667 0.4811 0.0000 ( 12455 PWs)   bands (ev):

   -17.3587 -13.7592 -10.4007  -5.0781  -0.1592   6.7072   6.8770   7.4083

          k = 0.1667 0.5453 0.0000 ( 12448 PWs)   bands (ev):

   -16.4550 -14.8324 -10.5614  -4.3613  -1.0186   6.7232   8.2326   8.5992

          k = 0.2222 0.3849 0.0000 ( 12470 PWs)   bands (ev):

   -18.3257 -12.1351 -10.4645  -6.0399   1.1727   5.3702   6.0385   6.2715

          k = 0.2222 0.4491 0.0000 ( 12455 PWs)   bands (ev):

   -17.4811 -13.0964 -11.0980  -5.1462   0.0729   6.5805   7.1771   7.5339

          k = 0.2222 0.5132 0.0000 ( 12426 PWs)   bands (ev):

   -16.5650 -14.1451 -11.4361  -4.2704  -0.9330   7.9204   8.1478   8.2558

          k = 0.2222 0.5774 0.0000 ( 12432 PWs)   bands (ev):

   -15.9085 -14.8566 -11.5410  -3.8021  -1.4461   8.1672   8.4269   9.2697

          k = 0.2778 0.4811 0.0000 ( 12442 PWs)   bands (ev):

   -16.6119 -13.7299 -11.9110  -4.2470  -0.8820   7.8485   7.9718   8.8896

          k = 0.2778 0.5453 0.0000 ( 12457 PWs)   bands (ev):

   -15.7352 -14.4991 -12.3190  -3.4204  -1.7318   8.0905   9.1475   9.5398

          k = 0.3333 0.5774 0.0000 ( 12462 PWs)   bands (ev):

   -14.9954 -14.9954 -12.7029  -2.5645  -2.5645   7.9652   9.8673   9.8673

     the Fermi energy is    -2.5645 ev

!    total energy              =     -36.88436603 Ry

     total all-electron energy =      -152.412560 Ry
     estimated scf accuracy    <          2.9E-11 Ry
     smearing contrib. (-TS)   =      -0.00013936 Ry
     internal energy E=F+TS    =     -36.88422666 Ry

     The total energy is F=E-TS. E is the sum of the following terms:
     one-electron contribution =    -214.79246922 Ry
     hartree contribution      =     108.77535548 Ry
     xc contribution           =      -9.18515620 Ry
     ewald contribution        =      90.64841795 Ry
     one-center paw contrib.   =     -12.33037468 Ry

     convergence has been achieved in   9 iterations

     Writing output data file ./tmp/graphene1.save/

     init_run     :      9.43s CPU      9.62s WALL (       1 calls)
     electrons    :    206.45s CPU    208.26s WALL (       1 calls)

     Called by init_run:
     wfcinit      :      7.89s CPU      7.95s WALL (       1 calls)
     potinit      :      0.70s CPU      0.77s WALL (       1 calls)
     hinit0       :      0.55s CPU      0.57s WALL (       1 calls)

     Called by electrons:
     c_bands      :    174.78s CPU    175.32s WALL (       9 calls)
     sum_band     :     27.32s CPU     27.69s WALL (       9 calls)
     v_of_rho     :      2.57s CPU      2.72s WALL (      10 calls)
     newd         :      0.96s CPU      1.32s WALL (      10 calls)
     PAW_pot      :      1.18s CPU      1.18s WALL (      10 calls)
     mix_rho      :      0.28s CPU      0.63s WALL (       9 calls)

     Called by c_bands:
     init_us_2    :      2.37s CPU      2.39s WALL (     703 calls)
     cegterg      :    170.75s CPU    171.28s WALL (     333 calls)

     Called by *egterg:
     cdiaghg      :      0.24s CPU      0.24s WALL (    1780 calls)
     h_psi        :    146.73s CPU    147.21s WALL (    1817 calls)
     s_psi        :      5.90s CPU      5.92s WALL (    1817 calls)
     g_psi        :      0.78s CPU      0.78s WALL (    1447 calls)

     Called by h_psi:
     h_psi:calbec :      5.57s CPU      5.58s WALL (    1817 calls)
     vloc_psi     :    134.85s CPU    135.30s WALL (    1817 calls)
     add_vuspsi   :      5.84s CPU      5.87s WALL (    1817 calls)

     General routines
     calbec       :      7.29s CPU      7.31s WALL (    2150 calls)
     fft          :      1.21s CPU      1.21s WALL (     110 calls)
     ffts         :      0.10s CPU      0.10s WALL (       9 calls)
     fftw         :    127.75s CPU    128.15s WALL (   19302 calls)

     Parallel routines

     PWSCF        :   3m36.12s CPU   3m39.93s WALL


   This run was terminated on:  21:37:37  28Aug2023            

=------------------------------------------------------------------------------=
   JOB DONE.
=------------------------------------------------------------------------------=
