
     Program PWSCF v.6.7MaX starts on  4Aug2023 at 11:33:27 

     This program is part of the open-source Quantum ESPRESSO suite
     for quantum simulation of materials; please cite
         "P. Giannozzi et al., J. Phys.:Condens. Matter 21 395502 (2009);
         "P. Giannozzi et al., J. Phys.:Condens. Matter 29 465901 (2017);
          URL http://www.quantum-espresso.org", 
     in publications or presentations arising from this work. More details at
     http://www.quantum-espresso.org/quote

     Parallel version (MPI), running on     1 processors

     MPI processes distributed on     1 nodes
     Waiting for input...
     Reading input from standard input

     Current dimensions of program PWSCF are:
     Max number of different atomic species (ntypx) = 10
     Max number of k-points (npk) =  40000
     Max angular momentum in pseudopotentials (lmaxx) =  3
     file C.pbe-n-kjpaw_psl.1.0.0.UPF: wavefunction(s)  2S 2P renormalized

     Subspace diagonalization in iterative solution of the eigenvalue problem:
     a serial algorithm will be used

     Message from routine setup:
     using ibrav=0 with symmetry is DISCOURAGED, use correct ibrav instead

     G-vector sticks info
     --------------------
     sticks:   dense  smooth     PW     G-vecs:    dense   smooth      PW
     Sum         595     595    199                96039    96039   17723



     bravais-lattice index     =            0
     lattice parameter (alat)  =       4.6620  a.u.
     unit-cell volume          =     711.2086 (a.u.)^3
     number of atoms/cell      =            2
     number of atomic types    =            1
     number of electrons       =         8.00
     number of Kohn-Sham states=            8
     kinetic-energy cutoff     =     100.0000  Ry
     charge density cutoff     =     400.0000  Ry
     scf convergence threshold =      1.0E-09
     mixing beta               =       0.5000
     number of iterations used =            8  plain     mixing
     energy convergence thresh.=      1.0E-05
     force convergence thresh. =      1.0E-04
     press convergence thresh. =      5.0E-01
     Exchange-correlation= SLA  PW   PBX  PBC
                           (   1   4   3   4   0   0   0)
     nstep                     =           50


     celldm(1)=   4.661954  celldm(2)=   0.000000  celldm(3)=   0.000000
     celldm(4)=   0.000000  celldm(5)=   0.000000  celldm(6)=   0.000000

     crystal axes: (cart. coord. in units of alat)
               a(1) = (   1.000000   0.000000   0.000000 )  
               a(2) = (  -0.499797   0.865829   0.000000 )  
               a(3) = (   0.000000   0.000000   8.107013 )  

     reciprocal axes: (cart. coord. in units 2 pi/alat)
               b(1) = (  1.000000  0.577247 -0.000000 )  
               b(2) = (  0.000000  1.154963  0.000000 )  
               b(3) = (  0.000000 -0.000000  0.123350 )  


     PseudoPot. # 1 for C  read from file:
     ./Pseudo/C.pbe-n-kjpaw_psl.1.0.0.UPF
     MD5 check sum: ecdf03482cb4269f2fcfa842d572f30f
     Pseudo is Projector augmented-wave + core cor, Zval =  4.0
     Generated using &quot;atomic&quot; code by A. Dal Corso  v.6.3
     Shape of augmentation charge: PSQ
     Using radial grid of 1073 points,  4 beta functions with: 
                l(1) =   0
                l(2) =   0
                l(3) =   1
                l(4) =   1
     Q(r) pseudized with 0 coefficients 


     atomic species   valence    mass     pseudopotential
        C              4.00    12.00000     C ( 1.00)

      4 Sym. Ops., with inversion, found ( 2 have fractional translation)



   Cartesian axes

     site n.     atom                  positions (alat units)
         1           C   tau(   1) = (   0.0000000   0.0000000   0.0000000  )
         2           C   tau(   2) = (   0.5000676   0.2886096   0.0000000  )

     number of k points=   130  Gaussian smearing, width (Ry)=  0.0200

     Number of k-points >= 100: set verbosity='high' to print them.

     Dense  grid:    96039 G-vectors     FFT dimensions: (  30,  30, 243)

     Estimated max dynamical RAM per process >     324.13 MB

     Check: negative core charge=   -0.000002

     Initial potential from superposition of free atoms

     starting charge    7.99992, renormalised to    8.00000

     negative rho (up, down):  1.065E-04 0.000E+00
     Starting wfcs are    8 randomized atomic wfcs
     Checking if some PAW data can be deallocated... 

     total cpu time spent up to now is       32.1 secs

     Self-consistent Calculation

     iteration #  1     ecut=   100.00 Ry     beta= 0.50
     Davidson diagonalization with overlap
     ethr =  1.00E-02,  avg # of iterations =  5.8

     negative rho (up, down):  1.060E-04 0.000E+00

     total cpu time spent up to now is      157.6 secs

     total energy              =     -36.88220779 Ry
     estimated scf accuracy    <       0.19058086 Ry

     iteration #  2     ecut=   100.00 Ry     beta= 0.50
     Davidson diagonalization with overlap
     ethr =  2.38E-03,  avg # of iterations =  2.5

     negative rho (up, down):  1.185E-04 0.000E+00

     total cpu time spent up to now is      227.7 secs

     total energy              =     -36.88441852 Ry
     estimated scf accuracy    <       0.01980401 Ry

     iteration #  3     ecut=   100.00 Ry     beta= 0.50
     Davidson diagonalization with overlap
     ethr =  2.48E-04,  avg # of iterations =  8.8

     negative rho (up, down):  1.231E-04 0.000E+00

     total cpu time spent up to now is      337.4 secs

     total energy              =     -36.88814446 Ry
     estimated scf accuracy    <       0.00069756 Ry

     iteration #  4     ecut=   100.00 Ry     beta= 0.50
     Davidson diagonalization with overlap
     c_bands:  2 eigenvalues not converged
     c_bands:  1 eigenvalues not converged
     c_bands:  2 eigenvalues not converged
     c_bands:  1 eigenvalues not converged
     c_bands:  1 eigenvalues not converged
     ethr =  8.72E-06,  avg # of iterations =  9.3

     negative rho (up, down):  1.253E-04 0.000E+00

     total cpu time spent up to now is      445.6 secs

     total energy              =     -36.88810763 Ry
     estimated scf accuracy    <       0.00041879 Ry

     iteration #  5     ecut=   100.00 Ry     beta= 0.50
     Davidson diagonalization with overlap
     c_bands:  1 eigenvalues not converged
     c_bands:  1 eigenvalues not converged
     c_bands:  1 eigenvalues not converged
     c_bands:  1 eigenvalues not converged
     ethr =  5.23E-06,  avg # of iterations =  4.6

     negative rho (up, down):  1.260E-04 0.000E+00

     total cpu time spent up to now is      519.2 secs

     total energy              =     -36.88818445 Ry
     estimated scf accuracy    <       0.00000206 Ry

     iteration #  6     ecut=   100.00 Ry     beta= 0.50
     Davidson diagonalization with overlap
     ethr =  2.58E-08,  avg # of iterations =  2.7

     negative rho (up, down):  1.263E-04 0.000E+00

     total cpu time spent up to now is      585.4 secs

     total energy              =     -36.88818530 Ry
     estimated scf accuracy    <       0.00000009 Ry

     iteration #  7     ecut=   100.00 Ry     beta= 0.50
     Davidson diagonalization with overlap
     ethr =  1.07E-09,  avg # of iterations =  2.4

     negative rho (up, down):  1.263E-04 0.000E+00

     total cpu time spent up to now is      656.4 secs

     total energy              =     -36.88818532 Ry
     estimated scf accuracy    <          3.0E-09 Ry

     iteration #  8     ecut=   100.00 Ry     beta= 0.50
     Davidson diagonalization with overlap
     ethr =  3.81E-11,  avg # of iterations =  2.9

     negative rho (up, down):  1.263E-04 0.000E+00

     total cpu time spent up to now is      736.7 secs

     End of self-consistent calculation

     Number of k-points >= 100: set verbosity='high' to print the bands.

     the Fermi energy is    -2.3557 ev

!    total energy              =     -36.88818532 Ry

     total all-electron energy =      -152.416380 Ry
     estimated scf accuracy    <          8.2E-10 Ry
     smearing contrib. (-TS)   =      -0.00000312 Ry
     internal energy E=F+TS    =     -36.88818220 Ry

     The total energy is F=E-TS. E is the sum of the following terms:
     one-electron contribution =    -223.62077049 Ry
     hartree contribution      =     113.24339900 Ry
     xc contribution           =      -9.27271747 Ry
     ewald contribution        =      95.09588274 Ry
     one-center paw contrib.   =     -12.33397598 Ry

     convergence has been achieved in   8 iterations

     negative rho (up, down):  1.263E-04 0.000E+00

     Forces acting on atoms (cartesian axes, Ry/au):

     atom    1 type  1   force =     0.00010707    0.00010406    0.00000000
     atom    2 type  1   force =    -0.00010707   -0.00010406    0.00000000

     Total force =     0.000000     Total SCF correction =     0.000000


     Computing stress (Cartesian axis) and pressure


     negative rho (up, down):  1.263E-04 0.000E+00
          total   stress  (Ry/bohr**3)                   (kbar)     P=        0.28
   0.00000189  -0.00000122   0.00000000            0.28       -0.18        0.00
  -0.00000122   0.00000426   0.00000000           -0.18        0.63        0.00
   0.00000000   0.00000000  -0.00000045            0.00        0.00       -0.07


     BFGS Geometry Optimization
     Energy error            =      0.0E+00
     Gradient error          =      0.0E+00
     Cell gradient error     =      4.3E-06


     number of scf cycles    =   1
     number of bfgs steps    =   0

     enthalpy new            =     -36.8881853208 Ry

     new trust radius        =       0.0005909908 bohr
     new conv_thr            =       0.0000000010 Ry

     new unit-cell volume =    711.31801 a.u.^3 (   105.40645 Ang^3 )
     density =      0.37809 g/cm^3

CELL_PARAMETERS (angstrom)
   2.467116746  -0.000075315   0.000000000
  -1.233123559   2.136265157   0.000000000
   0.000000000   0.000000000  20.000000000

ATOMIC_POSITIONS (crystal)
C             0.0000000000        0.0000000000        0.0000000000    0   0   0
C             0.6666666660        0.3333333330        0.0000000000    0   0   0



     Writing output data file ./tmp/graphene.save/
     NEW-OLD atomic charge density approx. for the potential

     Check: negative core charge=   -0.000002

     negative rho (up, down):  1.264E-04 0.000E+00
     extrapolated charge    8.00123, renormalised to    8.00000

     total cpu time spent up to now is      778.1 secs

     Self-consistent Calculation

     iteration #  1     ecut=   100.00 Ry     beta= 0.50
     Davidson diagonalization with overlap
     ethr =  1.00E-06,  avg # of iterations =  3.7

     Threshold (ethr) on eigenvalues was too large:
     Diagonalizing with lowered threshold

     Davidson diagonalization with overlap
     ethr =  4.38E-09,  avg # of iterations =  1.0

     negative rho (up, down):  1.263E-04 0.000E+00

     total cpu time spent up to now is      911.4 secs

     total energy              =     -36.88818501 Ry
     estimated scf accuracy    <       0.00000036 Ry

     iteration #  2     ecut=   100.00 Ry     beta= 0.50
     Davidson diagonalization with overlap
     ethr =  4.54E-09,  avg # of iterations =  2.6

     negative rho (up, down):  1.263E-04 0.000E+00

     total cpu time spent up to now is      993.2 secs

     total energy              =     -36.88818571 Ry
     estimated scf accuracy    <       0.00000017 Ry

     iteration #  3     ecut=   100.00 Ry     beta= 0.50
     Davidson diagonalization with overlap
     ethr =  2.13E-09,  avg # of iterations =  1.0

     negative rho (up, down):  1.264E-04 0.000E+00

     total cpu time spent up to now is     1056.4 secs

     total energy              =     -36.88818567 Ry
     estimated scf accuracy    <       0.00000006 Ry

     iteration #  4     ecut=   100.00 Ry     beta= 0.50
     Davidson diagonalization with overlap
     ethr =  7.31E-10,  avg # of iterations =  2.0

     negative rho (up, down):  1.264E-04 0.000E+00

     total cpu time spent up to now is     1132.0 secs

     End of self-consistent calculation

     Number of k-points >= 100: set verbosity='high' to print the bands.

     the Fermi energy is    -2.3568 ev

!    total energy              =     -36.88818569 Ry

     total all-electron energy =      -152.416380 Ry
     estimated scf accuracy    <          3.2E-10 Ry
     smearing contrib. (-TS)   =      -0.00000313 Ry
     internal energy E=F+TS    =     -36.88818256 Ry

     The total energy is F=E-TS. E is the sum of the following terms:
     one-electron contribution =    -223.58578649 Ry
     hartree contribution      =     113.22573047 Ry
     xc contribution           =      -9.27238161 Ry
     ewald contribution        =      95.07821650 Ry
     one-center paw contrib.   =     -12.33396142 Ry

     convergence has been achieved in   4 iterations

     negative rho (up, down):  1.264E-04 0.000E+00

     Forces acting on atoms (cartesian axes, Ry/au):

     atom    1 type  1   force =     0.00007954    0.00007734    0.00000000
     atom    2 type  1   force =    -0.00007954   -0.00007734    0.00000000

     Total force =     0.000000     Total SCF correction =     0.000000


     Computing stress (Cartesian axis) and pressure


     negative rho (up, down):  1.264E-04 0.000E+00
          total   stress  (Ry/bohr**3)                   (kbar)     P=        0.18
   0.00000111  -0.00000090   0.00000000            0.16       -0.13        0.00
  -0.00000090   0.00000286   0.00000000           -0.13        0.42        0.00
   0.00000000   0.00000000  -0.00000035            0.00        0.00       -0.05

     Energy error            =      3.7E-07
     Gradient error          =      0.0E+00
     Cell gradient error     =      2.9E-06


     bfgs converged in   2 scf cycles and   1 bfgs steps
     (criteria: energy <  1.0E-05 Ry, force <  1.0E-04Ry/Bohr, cell <  5.0E-01kbar)

     End of BFGS Geometry Optimization

     Final enthalpy =     -36.8881856862 Ry

     File ./tmp/graphene.bfgs deleted, as requested
Begin final coordinates
     new unit-cell volume =    711.31801 a.u.^3 (   105.40645 Ang^3 )
     density =      0.37809 g/cm^3

CELL_PARAMETERS (angstrom)
   2.467116746  -0.000075315   0.000000000
  -1.233123559   2.136265157   0.000000000
   0.000000000   0.000000000  20.000000000

ATOMIC_POSITIONS (crystal)
C             0.0000000000        0.0000000000        0.0000000000    0   0   0
C             0.6666666660        0.3333333330        0.0000000000    0   0   0
End final coordinates



     Writing output data file ./tmp/graphene.save/

     Final scf calculation at the relaxed structure.
     The G-vectors are recalculated for the final unit cell
     Results may differ from those at the preceding step.

     G-vector sticks info
     --------------------
     sticks:   dense  smooth     PW     G-vecs:    dense   smooth      PW
     Sum         595     595    199                96043    96043   17723



     bravais-lattice index     =            0
     lattice parameter (alat)  =       4.6620  a.u.
     unit-cell volume          =     711.3180 (a.u.)^3
     number of atoms/cell      =            2
     number of atomic types    =            1
     number of electrons       =         8.00
     number of Kohn-Sham states=            8
     kinetic-energy cutoff     =     100.0000  Ry
     charge density cutoff     =     400.0000  Ry
     scf convergence threshold =      1.0E-09
     mixing beta               =       0.5000
     number of iterations used =            8  plain     mixing
     press convergence thresh. =      5.0E-01
     Exchange-correlation= SLA  PW   PBX  PBC
                           (   1   4   3   4   0   0   0)

     celldm(1)=   4.661954  celldm(2)=   0.000000  celldm(3)=   0.000000
     celldm(4)=   0.000000  celldm(5)=   0.000000  celldm(6)=   0.000000

     crystal axes: (cart. coord. in units of alat)
               a(1) = (   1.000047  -0.000031   0.000000 )  
               a(2) = (  -0.499847   0.865936   0.000000 )  
               a(3) = (   0.000000   0.000000   8.107013 )  

     reciprocal axes: (cart. coord. in units 2 pi/alat)
               b(1) = (  0.999970  0.577216 -0.000000 )  
               b(2) = (  0.000035  1.154840 -0.000000 )  
               b(3) = ( -0.000000 -0.000000  0.123350 )  


     PseudoPot. # 1 for C  read from file:
     ./Pseudo/C.pbe-n-kjpaw_psl.1.0.0.UPF
     MD5 check sum: ecdf03482cb4269f2fcfa842d572f30f
     Pseudo is Projector augmented-wave + core cor, Zval =  4.0
     Generated using &quot;atomic&quot; code by A. Dal Corso  v.6.3
     Shape of augmentation charge: PSQ
     Using radial grid of 1073 points,  4 beta functions with: 
                l(1) =   0
                l(2) =   0
                l(3) =   1
                l(4) =   1
     Q(r) pseudized with 0 coefficients 


     atomic species   valence    mass     pseudopotential
        C              4.00    12.00000     C ( 1.00)

      4 Sym. Ops., with inversion, found ( 2 have fractional translation)



   Cartesian axes

     site n.     atom                  positions (alat units)
         1           C   tau(   1) = (   0.0000000   0.0000000   0.0000000  )
         2           C   tau(   2) = (   0.5000824   0.2886251   0.0000000  )

     number of k points=   130  Gaussian smearing, width (Ry)=  0.0200

     Number of k-points >= 100: set verbosity='high' to print them.

     Dense  grid:    96043 G-vectors     FFT dimensions: (  30,  30, 243)

     Estimated max dynamical RAM per process >     324.90 MB

     Check: negative core charge=   -0.000002

     Initial potential from superposition of free atoms

     starting charge    7.99992, renormalised to    8.00000

     negative rho (up, down):  1.064E-04 0.000E+00
     Starting wfcs are    8 randomized atomic wfcs
     Checking if some PAW data can be deallocated... 

     total cpu time spent up to now is     1195.4 secs

     Self-consistent Calculation

     iteration #  1     ecut=   100.00 Ry     beta= 0.50
     Davidson diagonalization with overlap
     c_bands:  1 eigenvalues not converged
     c_bands:  2 eigenvalues not converged
     c_bands:  1 eigenvalues not converged
     c_bands:  1 eigenvalues not converged
     c_bands:  1 eigenvalues not converged
     c_bands:  1 eigenvalues not converged
     c_bands:  1 eigenvalues not converged
     c_bands:  1 eigenvalues not converged
     c_bands:  1 eigenvalues not converged
     c_bands:  1 eigenvalues not converged
     c_bands:  1 eigenvalues not converged
     c_bands:  1 eigenvalues not converged
     c_bands:  1 eigenvalues not converged
     c_bands:  1 eigenvalues not converged
     c_bands:  1 eigenvalues not converged
     c_bands:  1 eigenvalues not converged
     c_bands:  1 eigenvalues not converged
     c_bands:  1 eigenvalues not converged
     c_bands:  1 eigenvalues not converged
     c_bands:  1 eigenvalues not converged
     c_bands:  1 eigenvalues not converged
     c_bands:  2 eigenvalues not converged
     c_bands:  1 eigenvalues not converged
     c_bands:  1 eigenvalues not converged
     c_bands:  1 eigenvalues not converged
     c_bands:  2 eigenvalues not converged
     c_bands:  1 eigenvalues not converged
     c_bands:  1 eigenvalues not converged
     c_bands:  1 eigenvalues not converged
     c_bands:  1 eigenvalues not converged
     c_bands:  1 eigenvalues not converged
     c_bands:  1 eigenvalues not converged
     c_bands:  1 eigenvalues not converged
     c_bands:  1 eigenvalues not converged
     c_bands:  1 eigenvalues not converged
     c_bands:  1 eigenvalues not converged
     c_bands:  1 eigenvalues not converged
     c_bands:  1 eigenvalues not converged
     c_bands:  2 eigenvalues not converged
     c_bands:  1 eigenvalues not converged
     c_bands:  1 eigenvalues not converged
     c_bands:  1 eigenvalues not converged
     c_bands:  1 eigenvalues not converged
     c_bands:  1 eigenvalues not converged
     c_bands:  1 eigenvalues not converged
     c_bands:  1 eigenvalues not converged
     c_bands:  1 eigenvalues not converged
     c_bands:  1 eigenvalues not converged
     c_bands:  1 eigenvalues not converged
     c_bands:  1 eigenvalues not converged
     c_bands:  1 eigenvalues not converged
     c_bands:  1 eigenvalues not converged
     c_bands:  1 eigenvalues not converged
     c_bands:  1 eigenvalues not converged
     c_bands:  1 eigenvalues not converged
     c_bands:  1 eigenvalues not converged
     c_bands:  2 eigenvalues not converged
     c_bands:  1 eigenvalues not converged
     c_bands:  1 eigenvalues not converged
     c_bands:  1 eigenvalues not converged
     c_bands:  1 eigenvalues not converged
     c_bands:  1 eigenvalues not converged
     c_bands:  1 eigenvalues not converged
     c_bands:  1 eigenvalues not converged
     c_bands:  1 eigenvalues not converged
     c_bands:  1 eigenvalues not converged
     c_bands:  1 eigenvalues not converged
     c_bands:  1 eigenvalues not converged
     c_bands:  2 eigenvalues not converged
     c_bands:  1 eigenvalues not converged
     c_bands:  1 eigenvalues not converged
     c_bands:  1 eigenvalues not converged
     c_bands:  1 eigenvalues not converged
     c_bands:  1 eigenvalues not converged
     c_bands:  1 eigenvalues not converged
     c_bands:  1 eigenvalues not converged
     c_bands:  1 eigenvalues not converged
     c_bands:  1 eigenvalues not converged
     c_bands:  1 eigenvalues not converged
     c_bands:  1 eigenvalues not converged
     c_bands:  1 eigenvalues not converged
     c_bands:  1 eigenvalues not converged
     c_bands:  2 eigenvalues not converged
     c_bands:  1 eigenvalues not converged
     c_bands:  1 eigenvalues not converged
     c_bands:  1 eigenvalues not converged
     c_bands:  1 eigenvalues not converged
     c_bands:  1 eigenvalues not converged
     c_bands:  1 eigenvalues not converged
     c_bands:  1 eigenvalues not converged
     c_bands:  1 eigenvalues not converged
     c_bands:  1 eigenvalues not converged
     c_bands:  1 eigenvalues not converged
     c_bands:  1 eigenvalues not converged
     c_bands:  1 eigenvalues not converged
     c_bands:  1 eigenvalues not converged
     c_bands:  1 eigenvalues not converged
     c_bands:  1 eigenvalues not converged
     c_bands:  1 eigenvalues not converged
     c_bands:  1 eigenvalues not converged
     c_bands:  1 eigenvalues not converged
     c_bands:  1 eigenvalues not converged
     c_bands:  1 eigenvalues not converged
     c_bands:  1 eigenvalues not converged
     c_bands:  1 eigenvalues not converged
     c_bands:  1 eigenvalues not converged
     c_bands:  1 eigenvalues not converged
     c_bands:  1 eigenvalues not converged
     c_bands:  1 eigenvalues not converged
     c_bands:  1 eigenvalues not converged
     c_bands:  1 eigenvalues not converged
     c_bands:  1 eigenvalues not converged
     c_bands:  1 eigenvalues not converged
     c_bands:  1 eigenvalues not converged
     c_bands:  1 eigenvalues not converged
     c_bands:  1 eigenvalues not converged
     c_bands:  1 eigenvalues not converged
     ethr =  1.00E-06,  avg # of iterations = 19.8

     negative rho (up, down):  1.131E-04 0.000E+00

     total cpu time spent up to now is     1514.0 secs

     total energy              =     -36.87697043 Ry
     estimated scf accuracy    <       0.20234920 Ry

     iteration #  2     ecut=   100.00 Ry     beta= 0.50
     Davidson diagonalization with overlap
     ethr =  2.53E-03,  avg # of iterations =  1.9

     negative rho (up, down):  1.197E-04 0.000E+00

     total cpu time spent up to now is     1584.8 secs

     total energy              =     -36.88492917 Ry
     estimated scf accuracy    <       0.01756193 Ry

     iteration #  3     ecut=   100.00 Ry     beta= 0.50
     Davidson diagonalization with overlap
     ethr =  2.20E-04,  avg # of iterations =  6.8

     negative rho (up, down):  1.236E-04 0.000E+00

     total cpu time spent up to now is     1690.5 secs

     total energy              =     -36.88812798 Ry
     estimated scf accuracy    <       0.00058719 Ry

     iteration #  4     ecut=   100.00 Ry     beta= 0.50
     Davidson diagonalization with overlap
     c_bands:  1 eigenvalues not converged
     c_bands:  1 eigenvalues not converged
     c_bands:  1 eigenvalues not converged
     ethr =  7.34E-06,  avg # of iterations =  9.9

     negative rho (up, down):  1.252E-04 0.000E+00

     total cpu time spent up to now is     1816.9 secs

     total energy              =     -36.88817718 Ry
     estimated scf accuracy    <       0.00003791 Ry

     iteration #  5     ecut=   100.00 Ry     beta= 0.50
     Davidson diagonalization with overlap
     ethr =  4.74E-07,  avg # of iterations =  4.0

     negative rho (up, down):  1.261E-04 0.000E+00

     total cpu time spent up to now is     1901.2 secs

     total energy              =     -36.88818517 Ry
     estimated scf accuracy    <       0.00000066 Ry

     iteration #  6     ecut=   100.00 Ry     beta= 0.50
     Davidson diagonalization with overlap
     ethr =  8.20E-09,  avg # of iterations =  3.5

     negative rho (up, down):  1.263E-04 0.000E+00

     total cpu time spent up to now is     1968.2 secs

     total energy              =     -36.88818567 Ry
     estimated scf accuracy    <       0.00000023 Ry

     iteration #  7     ecut=   100.00 Ry     beta= 0.50
     Davidson diagonalization with overlap
     ethr =  2.91E-09,  avg # of iterations =  2.0

     negative rho (up, down):  1.263E-04 0.000E+00

     total cpu time spent up to now is     2022.0 secs

     total energy              =     -36.88818570 Ry
     estimated scf accuracy    <          3.9E-09 Ry

     iteration #  8     ecut=   100.00 Ry     beta= 0.50
     Davidson diagonalization with overlap
     ethr =  4.91E-11,  avg # of iterations =  2.6

     negative rho (up, down):  1.263E-04 0.000E+00

     total cpu time spent up to now is     2083.8 secs

     End of self-consistent calculation

     Number of k-points >= 100: set verbosity='high' to print the bands.

     the Fermi energy is    -2.3568 ev

!    total energy              =     -36.88818571 Ry

     total all-electron energy =      -152.416380 Ry
     estimated scf accuracy    <          2.2E-11 Ry
     smearing contrib. (-TS)   =      -0.00000313 Ry
     internal energy E=F+TS    =     -36.88818258 Ry

     The total energy is F=E-TS. E is the sum of the following terms:
     one-electron contribution =    -223.58581388 Ry
     hartree contribution      =     113.22576179 Ry
     xc contribution           =      -9.27238483 Ry
     ewald contribution        =      95.07821650 Ry
     one-center paw contrib.   =     -12.33396216 Ry

     convergence has been achieved in   8 iterations

     negative rho (up, down):  1.263E-04 0.000E+00

     Forces acting on atoms (cartesian axes, Ry/au):

     atom    1 type  1   force =     0.00007895    0.00007669    0.00000000
     atom    2 type  1   force =    -0.00007895   -0.00007669    0.00000000

     Total force =     0.000000     Total SCF correction =     0.000000


     Computing stress (Cartesian axis) and pressure


     negative rho (up, down):  1.263E-04 0.000E+00
          total   stress  (Ry/bohr**3)                   (kbar)     P=        0.18
   0.00000111  -0.00000090   0.00000000            0.16       -0.13        0.00
  -0.00000090   0.00000286   0.00000000           -0.13        0.42        0.00
   0.00000000   0.00000000  -0.00000031            0.00        0.00       -0.05


     Writing output data file ./tmp/graphene.save/

     init_run     :     65.00s CPU     65.71s WALL (       2 calls)
     electrons    :   1926.36s CPU   1947.66s WALL (       3 calls)
     update_pot   :      8.61s CPU      8.79s WALL (       1 calls)
     forces       :     25.10s CPU     25.37s WALL (       3 calls)
     stress       :     59.90s CPU     60.74s WALL (       3 calls)

     Called by init_run:
     wfcinit      :     49.87s CPU     50.37s WALL (       2 calls)
     potinit      :      4.93s CPU      5.02s WALL (       2 calls)
     hinit0       :      9.34s CPU      9.40s WALL (       2 calls)

     Called by electrons:
     c_bands      :   1693.70s CPU   1707.58s WALL (      21 calls)
     sum_band     :    223.08s CPU    227.16s WALL (      21 calls)
     v_of_rho     :      5.05s CPU      5.29s WALL (      23 calls)
     newd         :      2.41s CPU      3.16s WALL (      23 calls)
     PAW_pot      :      2.81s CPU      3.80s WALL (      24 calls)
     mix_rho      :      0.65s CPU      0.96s WALL (      21 calls)

     Called by c_bands:
     init_us_2    :     22.80s CPU     23.20s WALL (    6630 calls)
     cegterg      :   1660.39s CPU   1673.78s WALL (    2730 calls)

     Called by *egterg:
     cdiaghg      :      2.30s CPU      4.45s WALL (   15438 calls)
     h_psi        :   1406.09s CPU   1414.00s WALL (   15958 calls)
     s_psi        :     55.72s CPU     56.06s WALL (   15958 calls)
     g_psi        :      7.02s CPU      7.08s WALL (   12968 calls)

     Called by h_psi:
     h_psi:calbec :     52.88s CPU     53.80s WALL (   15958 calls)
     vloc_psi     :   1293.05s CPU   1299.61s WALL (   15958 calls)
     add_vuspsi   :     55.20s CPU     55.65s WALL (   15958 calls)

     General routines
     calbec       :     78.78s CPU     79.64s WALL (   20768 calls)
     fft          :      3.73s CPU      3.76s WALL (     330 calls)
     ffts         :      0.25s CPU      0.25s WALL (      21 calls)
     fftw         :   1281.34s CPU   1288.41s WALL (  167712 calls)

     Parallel routines

     PWSCF        :  34m47.19s CPU  35m14.48s WALL


   This run was terminated on:  12: 8:42   4Aug2023            

=------------------------------------------------------------------------------=
   JOB DONE.
=------------------------------------------------------------------------------=
