
     Program PWSCF v.6.7MaX starts on 25Aug2023 at 12:30:42 

     This program is part of the open-source Quantum ESPRESSO suite
     for quantum simulation of materials; please cite
         "P. Giannozzi et al., J. Phys.:Condens. Matter 21 395502 (2009);
         "P. Giannozzi et al., J. Phys.:Condens. Matter 29 465901 (2017);
          URL http://www.quantum-espresso.org", 
     in publications or presentations arising from this work. More details at
     http://www.quantum-espresso.org/quote

     Parallel version (MPI), running on     2 processors

     MPI processes distributed on     1 nodes
     R & G space division:  proc/nbgrp/npool/nimage =       2
     Waiting for input...
     Reading input from standard input

     Current dimensions of program PWSCF are:
     Max number of different atomic species (ntypx) = 10
     Max number of k-points (npk) =  40000
     Max angular momentum in pseudopotentials (lmaxx) =  3

     Atomic positions and unit cell read from directory:
     ./tmp/graphene1.save/
     Atomic positions from file used, from input discarded

     file C.pbe-n-kjpaw_psl.1.0.0.UPF: wavefunction(s)  2S 2P renormalized

     Subspace diagonalization in iterative solution of the eigenvalue problem:
     a serial algorithm will be used


     Parallelization info
     --------------------
     sticks:   dense  smooth     PW     G-vecs:    dense   smooth      PW
     Min         297     297     93                48017    48017    7669
     Max         298     298     94                48026    48026    7672
     Sum         595     595    187                96043    96043   15341



     bravais-lattice index     =           12
     lattice parameter (alat)  =       4.6620  a.u.
     unit-cell volume          =     711.3700 (a.u.)^3
     number of atoms/cell      =            2
     number of atomic types    =            1
     number of electrons       =         8.00
     number of Kohn-Sham states=            8
     kinetic-energy cutoff     =     100.0000  Ry
     charge density cutoff     =     400.0000  Ry
     Exchange-correlation= SLA  PW   PBX  PBC
                           (   1   4   3   4   0   0   0)

     celldm(1)=   4.661954  celldm(2)=   1.000000  celldm(3)=   8.107013
     celldm(4)=  -0.500000  celldm(5)=   0.000000  celldm(6)=   0.000000

     crystal axes: (cart. coord. in units of alat)
               a(1) = (   1.000000   0.000000   0.000000 )  
               a(2) = (  -0.500000   0.866025   0.000000 )  
               a(3) = (   0.000000   0.000000   8.107013 )  

     reciprocal axes: (cart. coord. in units 2 pi/alat)
               b(1) = (  1.000000  0.577350 -0.000000 )  
               b(2) = (  0.000000  1.154701  0.000000 )  
               b(3) = (  0.000000 -0.000000  0.123350 )  


     PseudoPot. # 1 for C  read from file:
     ./Pseudo/C.pbe-n-kjpaw_psl.1.0.0.UPF
     MD5 check sum: ecdf03482cb4269f2fcfa842d572f30f
     Pseudo is Projector augmented-wave + core cor, Zval =  4.0
     Generated using &quot;atomic&quot; code by A. Dal Corso  v.6.3
     Shape of augmentation charge: PSQ
     Using radial grid of 1073 points,  4 beta functions with: 
                l(1) =   0
                l(2) =   0
                l(3) =   1
                l(4) =   1
     Q(r) pseudized with 0 coefficients 


     atomic species   valence    mass     pseudopotential
        C              4.00    12.01070     C ( 1.00)

     24 Sym. Ops., with inversion, found (18 have fractional translation)


                                    s                        frac. trans.

      isym =  1     identity                                     

 cryst.   s( 1) = (     1          0          0      )
                  (     0          1          0      )
                  (     0          0          1      )

 cart.    s( 1) = (  1.0000000  0.0000000  0.0000000 )
                  (  0.0000000  1.0000000  0.0000000 )
                  (  0.0000000  0.0000000  1.0000000 )


      isym =  2     180 deg rotation - cart. axis [0,0,1]        

 cryst.   s( 2) = (    -1          0          0      )    f =( -0.3333333 )
                  (     0         -1          0      )       (  0.3333333 )
                  (     0          0          1      )       (  0.0000000 )

 cart.    s( 2) = ( -1.0000000  0.0000000  0.0000000 )    f =( -0.5000000 )
                  (  0.0000000 -1.0000000  0.0000000 )       (  0.2886751 )
                  (  0.0000000  0.0000000  1.0000000 )       (  0.0000000 )


      isym =  3     180 deg rotation - cart. axis [0,1,0]        

 cryst.   s( 3) = (    -1          0          0      )    f =(  0.0000000 )
                  (     1          1          0      )       (  0.0000000 )
                  (     0          0         -1      )       ( -0.5000000 )

 cart.    s( 3) = ( -1.0000000  0.0000000  0.0000000 )    f =(  0.0000000 )
                  (  0.0000000  1.0000000  0.0000000 )       (  0.0000000 )
                  (  0.0000000  0.0000000 -1.0000000 )       ( -4.0535063 )


      isym =  4     180 deg rotation - cart. axis [1,0,0]        

 cryst.   s( 4) = (     1          0          0      )    f =( -0.3333333 )
                  (    -1         -1          0      )       (  0.3333333 )
                  (     0          0         -1      )       ( -0.5000000 )

 cart.    s( 4) = (  1.0000000  0.0000000  0.0000000 )    f =( -0.5000000 )
                  (  0.0000000 -1.0000000  0.0000000 )       (  0.2886751 )
                  (  0.0000000  0.0000000 -1.0000000 )       ( -4.0535063 )


      isym =  5      60 deg rotation - cryst. axis [0,0,1]       

 cryst.   s( 5) = (     1          1          0      )    f =( -0.3333333 )
                  (    -1          0          0      )       (  0.3333333 )
                  (     0          0          1      )       (  0.0000000 )

 cart.    s( 5) = (  0.5000000 -0.8660254  0.0000000 )    f =( -0.5000000 )
                  (  0.8660254  0.5000000  0.0000000 )       (  0.2886751 )
                  (  0.0000000  0.0000000  1.0000000 )       (  0.0000000 )


      isym =  6      60 deg rotation - cryst. axis [0,0,-1]      

 cryst.   s( 6) = (     0         -1          0      )    f =( -0.3333333 )
                  (     1          1          0      )       (  0.3333333 )
                  (     0          0          1      )       (  0.0000000 )

 cart.    s( 6) = (  0.5000000  0.8660254  0.0000000 )    f =( -0.5000000 )
                  ( -0.8660254  0.5000000  0.0000000 )       (  0.2886751 )
                  (  0.0000000  0.0000000  1.0000000 )       (  0.0000000 )


      isym =  7     120 deg rotation - cryst. axis [0,0,1]       

 cryst.   s( 7) = (     0          1          0      )
                  (    -1         -1          0      )
                  (     0          0          1      )

 cart.    s( 7) = ( -0.5000000 -0.8660254  0.0000000 )
                  (  0.8660254 -0.5000000  0.0000000 )
                  (  0.0000000  0.0000000  1.0000000 )


      isym =  8     120 deg rotation - cryst. axis [0,0,-1]      

 cryst.   s( 8) = (    -1         -1          0      )
                  (     1          0          0      )
                  (     0          0          1      )

 cart.    s( 8) = ( -0.5000000  0.8660254  0.0000000 )
                  ( -0.8660254 -0.5000000  0.0000000 )
                  (  0.0000000  0.0000000  1.0000000 )


      isym =  9     180 deg rotation - cryst. axis [1,-1,0]      

 cryst.   s( 9) = (     0         -1          0      )    f =(  0.0000000 )
                  (    -1          0          0      )       (  0.0000000 )
                  (     0          0         -1      )       ( -0.5000000 )

 cart.    s( 9) = (  0.5000000 -0.8660254  0.0000000 )    f =(  0.0000000 )
                  ( -0.8660254 -0.5000000  0.0000000 )       (  0.0000000 )
                  (  0.0000000  0.0000000 -1.0000000 )       ( -4.0535063 )


      isym = 10     180 deg rotation - cryst. axis [2,1,0]       

 cryst.   s(10) = (     1          1          0      )    f =(  0.0000000 )
                  (     0         -1          0      )       (  0.0000000 )
                  (     0          0         -1      )       ( -0.5000000 )

 cart.    s(10) = (  0.5000000  0.8660254  0.0000000 )    f =(  0.0000000 )
                  (  0.8660254 -0.5000000  0.0000000 )       (  0.0000000 )
                  (  0.0000000  0.0000000 -1.0000000 )       ( -4.0535063 )


      isym = 11     180 deg rotation - cryst. axis [0,1,0]       

 cryst.   s(11) = (    -1         -1          0      )    f =( -0.3333333 )
                  (     0          1          0      )       (  0.3333333 )
                  (     0          0         -1      )       ( -0.5000000 )

 cart.    s(11) = ( -0.5000000 -0.8660254  0.0000000 )    f =( -0.5000000 )
                  ( -0.8660254  0.5000000  0.0000000 )       (  0.2886751 )
                  (  0.0000000  0.0000000 -1.0000000 )       ( -4.0535063 )


      isym = 12     180 deg rotation - cryst. axis [1,1,0]       

 cryst.   s(12) = (     0          1          0      )    f =( -0.3333333 )
                  (     1          0          0      )       (  0.3333333 )
                  (     0          0         -1      )       ( -0.5000000 )

 cart.    s(12) = ( -0.5000000  0.8660254  0.0000000 )    f =( -0.5000000 )
                  (  0.8660254  0.5000000  0.0000000 )       (  0.2886751 )
                  (  0.0000000  0.0000000 -1.0000000 )       ( -4.0535063 )


      isym = 13     inversion                                    

 cryst.   s(13) = (    -1          0          0      )    f =( -0.3333333 )
                  (     0         -1          0      )       (  0.3333333 )
                  (     0          0         -1      )       ( -0.5000000 )

 cart.    s(13) = ( -1.0000000  0.0000000  0.0000000 )    f =( -0.5000000 )
                  (  0.0000000 -1.0000000  0.0000000 )       (  0.2886751 )
                  (  0.0000000  0.0000000 -1.0000000 )       ( -4.0535063 )


      isym = 14     inv. 180 deg rotation - cart. axis [0,0,1]   

 cryst.   s(14) = (     1          0          0      )    f =(  0.0000000 )
                  (     0          1          0      )       (  0.0000000 )
                  (     0          0         -1      )       ( -0.5000000 )

 cart.    s(14) = (  1.0000000  0.0000000  0.0000000 )    f =(  0.0000000 )
                  (  0.0000000  1.0000000  0.0000000 )       (  0.0000000 )
                  (  0.0000000  0.0000000 -1.0000000 )       ( -4.0535063 )


      isym = 15     inv. 180 deg rotation - cart. axis [0,1,0]   

 cryst.   s(15) = (     1          0          0      )    f =( -0.3333333 )
                  (    -1         -1          0      )       (  0.3333333 )
                  (     0          0          1      )       (  0.0000000 )

 cart.    s(15) = (  1.0000000  0.0000000  0.0000000 )    f =( -0.5000000 )
                  (  0.0000000 -1.0000000  0.0000000 )       (  0.2886751 )
                  (  0.0000000  0.0000000  1.0000000 )       (  0.0000000 )


      isym = 16     inv. 180 deg rotation - cart. axis [1,0,0]   

 cryst.   s(16) = (    -1          0          0      )
                  (     1          1          0      )
                  (     0          0          1      )

 cart.    s(16) = ( -1.0000000  0.0000000  0.0000000 )
                  (  0.0000000  1.0000000  0.0000000 )
                  (  0.0000000  0.0000000  1.0000000 )


      isym = 17     inv.  60 deg rotation - cryst. axis [0,0,1]  

 cryst.   s(17) = (    -1         -1          0      )    f =(  0.0000000 )
                  (     1          0          0      )       (  0.0000000 )
                  (     0          0         -1      )       ( -0.5000000 )

 cart.    s(17) = ( -0.5000000  0.8660254  0.0000000 )    f =(  0.0000000 )
                  ( -0.8660254 -0.5000000  0.0000000 )       (  0.0000000 )
                  (  0.0000000  0.0000000 -1.0000000 )       ( -4.0535063 )


      isym = 18     inv.  60 deg rotation - cryst. axis [0,0,-1] 

 cryst.   s(18) = (     0          1          0      )    f =(  0.0000000 )
                  (    -1         -1          0      )       (  0.0000000 )
                  (     0          0         -1      )       ( -0.5000000 )

 cart.    s(18) = ( -0.5000000 -0.8660254  0.0000000 )    f =(  0.0000000 )
                  (  0.8660254 -0.5000000  0.0000000 )       (  0.0000000 )
                  (  0.0000000  0.0000000 -1.0000000 )       ( -4.0535063 )


      isym = 19     inv. 120 deg rotation - cryst. axis [0,0,1]  

 cryst.   s(19) = (     0         -1          0      )    f =( -0.3333333 )
                  (     1          1          0      )       (  0.3333333 )
                  (     0          0         -1      )       ( -0.5000000 )

 cart.    s(19) = (  0.5000000  0.8660254  0.0000000 )    f =( -0.5000000 )
                  ( -0.8660254  0.5000000  0.0000000 )       (  0.2886751 )
                  (  0.0000000  0.0000000 -1.0000000 )       ( -4.0535063 )


      isym = 20     inv. 120 deg rotation - cryst. axis [0,0,-1] 

 cryst.   s(20) = (     1          1          0      )    f =( -0.3333333 )
                  (    -1          0          0      )       (  0.3333333 )
                  (     0          0         -1      )       ( -0.5000000 )

 cart.    s(20) = (  0.5000000 -0.8660254  0.0000000 )    f =( -0.5000000 )
                  (  0.8660254  0.5000000  0.0000000 )       (  0.2886751 )
                  (  0.0000000  0.0000000 -1.0000000 )       ( -4.0535063 )


      isym = 21     inv. 180 deg rotation - cryst. axis [1,-1,0] 

 cryst.   s(21) = (     0          1          0      )    f =( -0.3333333 )
                  (     1          0          0      )       (  0.3333333 )
                  (     0          0          1      )       (  0.0000000 )

 cart.    s(21) = ( -0.5000000  0.8660254  0.0000000 )    f =( -0.5000000 )
                  (  0.8660254  0.5000000  0.0000000 )       (  0.2886751 )
                  (  0.0000000  0.0000000  1.0000000 )       (  0.0000000 )


      isym = 22     inv. 180 deg rotation - cryst. axis [2,1,0]  

 cryst.   s(22) = (    -1         -1          0      )    f =( -0.3333333 )
                  (     0          1          0      )       (  0.3333333 )
                  (     0          0          1      )       (  0.0000000 )

 cart.    s(22) = ( -0.5000000 -0.8660254  0.0000000 )    f =( -0.5000000 )
                  ( -0.8660254  0.5000000  0.0000000 )       (  0.2886751 )
                  (  0.0000000  0.0000000  1.0000000 )       (  0.0000000 )


      isym = 23     inv. 180 deg rotation - cryst. axis [0,1,0]  

 cryst.   s(23) = (     1          1          0      )
                  (     0         -1          0      )
                  (     0          0          1      )

 cart.    s(23) = (  0.5000000  0.8660254  0.0000000 )
                  (  0.8660254 -0.5000000  0.0000000 )
                  (  0.0000000  0.0000000  1.0000000 )


      isym = 24     inv. 180 deg rotation - cryst. axis [1,1,0]  

 cryst.   s(24) = (     0         -1          0      )
                  (    -1          0          0      )
                  (     0          0          1      )

 cart.    s(24) = (  0.5000000 -0.8660254  0.0000000 )
                  ( -0.8660254 -0.5000000  0.0000000 )
                  (  0.0000000  0.0000000  1.0000000 )


     point group D_6h(6/mmm)
     there are 12 classes
     the character table:

       E     2C6   2C3   C2    3C2'  3C2'' i     2S3   2S6   s_h   3s_d  3s_v 
A_1g   1.00  1.00  1.00  1.00  1.00  1.00  1.00  1.00  1.00  1.00  1.00  1.00
A_2g   1.00  1.00  1.00  1.00 -1.00 -1.00  1.00  1.00  1.00  1.00 -1.00 -1.00
B_1g   1.00 -1.00  1.00 -1.00  1.00 -1.00  1.00 -1.00  1.00 -1.00  1.00 -1.00
B_2g   1.00 -1.00  1.00 -1.00 -1.00  1.00  1.00 -1.00  1.00 -1.00 -1.00  1.00
E_1g   2.00  1.00 -1.00 -2.00  0.00  0.00  2.00  1.00 -1.00 -2.00  0.00  0.00
E_2g   2.00 -1.00 -1.00  2.00  0.00  0.00  2.00 -1.00 -1.00  2.00  0.00  0.00
A_1u   1.00  1.00  1.00  1.00  1.00  1.00 -1.00 -1.00 -1.00 -1.00 -1.00 -1.00
A_2u   1.00  1.00  1.00  1.00 -1.00 -1.00 -1.00 -1.00 -1.00 -1.00  1.00  1.00
B_1u   1.00 -1.00  1.00 -1.00  1.00 -1.00 -1.00  1.00 -1.00  1.00 -1.00  1.00
B_2u   1.00 -1.00  1.00 -1.00 -1.00  1.00 -1.00  1.00 -1.00  1.00  1.00 -1.00
E_1u   2.00  1.00 -1.00 -2.00  0.00  0.00 -2.00 -1.00  1.00  2.00  0.00  0.00
E_2u   2.00 -1.00 -1.00  2.00  0.00  0.00 -2.00  1.00  1.00 -2.00  0.00  0.00

     the symmetry operations in each class and the name of the first element:

     E        1
          identity                                               
     2C6      5    6
           60 deg rotation - cryst. axis [0,0,1]                 
     2C3      7    8
          120 deg rotation - cryst. axis [0,0,1]                 
     C2       2
          180 deg rotation - cart. axis [0,0,1]                  
     3C2'     4   12   11
          180 deg rotation - cart. axis [1,0,0]                  
     3C2''    3    9   10
          180 deg rotation - cart. axis [0,1,0]                  
     i       13
          inversion                                              
     2S3     17   18
          inv.  60 deg rotation - cryst. axis [0,0,1]            
     2S6     19   20
          inv. 120 deg rotation - cryst. axis [0,0,1]            
     s_h     14
          inv. 180 deg rotation - cart. axis [0,0,1]             
     3s_d    16   24   23
          inv. 180 deg rotation - cart. axis [1,0,0]             
     3s_v    15   21   22
          inv. 180 deg rotation - cart. axis [0,1,0]             

   Cartesian axes

     site n.     atom                  positions (alat units)
         1           C   tau(   1) = (   0.0000000   0.0000000   2.0267531  )
         2           C   tau(   2) = (  -0.0000000   0.5773503   2.0267531  )

   Crystallographic axes

     site n.     atom                  positions (cryst. coord.)
         1           C   tau(   1) = (  0.0000000  0.0000000  0.2500000  )
         2           C   tau(   2) = (  0.3333333  0.6666667  0.2500000  )

     number of k points=   127 (tetrahedron method)
                       cart. coord. in units 2pi/alat
        k(    1) = (   0.0000000   0.0000000   0.0000000), wk =   0.0015432
        k(    2) = (   0.0000000   0.0320750   0.0000000), wk =   0.0092593
        k(    3) = (   0.0000000   0.0641500   0.0000000), wk =   0.0092593
        k(    4) = (   0.0000000   0.0962250   0.0000000), wk =   0.0092593
        k(    5) = (   0.0000000   0.1283001   0.0000000), wk =   0.0092593
        k(    6) = (   0.0000000   0.1603751   0.0000000), wk =   0.0092593
        k(    7) = (   0.0000000   0.1924501   0.0000000), wk =   0.0092593
        k(    8) = (   0.0000000   0.2245251   0.0000000), wk =   0.0092593
        k(    9) = (   0.0000000   0.2566001   0.0000000), wk =   0.0092593
        k(   10) = (   0.0000000   0.2886751   0.0000000), wk =   0.0092593
        k(   11) = (   0.0000000   0.3207501   0.0000000), wk =   0.0092593
        k(   12) = (   0.0000000   0.3528252   0.0000000), wk =   0.0092593
        k(   13) = (   0.0000000   0.3849002   0.0000000), wk =   0.0092593
        k(   14) = (   0.0000000   0.4169752   0.0000000), wk =   0.0092593
        k(   15) = (   0.0000000   0.4490502   0.0000000), wk =   0.0092593
        k(   16) = (   0.0000000   0.4811252   0.0000000), wk =   0.0092593
        k(   17) = (   0.0000000   0.5132002   0.0000000), wk =   0.0092593
        k(   18) = (   0.0000000   0.5452753   0.0000000), wk =   0.0092593
        k(   19) = (   0.0000000  -0.5773503   0.0000000), wk =   0.0046296
        k(   20) = (   0.0277778   0.0481125   0.0000000), wk =   0.0092593
        k(   21) = (   0.0277778   0.0801875   0.0000000), wk =   0.0185185
        k(   22) = (   0.0277778   0.1122626   0.0000000), wk =   0.0185185
        k(   23) = (   0.0277778   0.1443376   0.0000000), wk =   0.0185185
        k(   24) = (   0.0277778   0.1764126   0.0000000), wk =   0.0185185
        k(   25) = (   0.0277778   0.2084876   0.0000000), wk =   0.0185185
        k(   26) = (   0.0277778   0.2405626   0.0000000), wk =   0.0185185
        k(   27) = (   0.0277778   0.2726376   0.0000000), wk =   0.0185185
        k(   28) = (   0.0277778   0.3047126   0.0000000), wk =   0.0185185
        k(   29) = (   0.0277778   0.3367877   0.0000000), wk =   0.0185185
        k(   30) = (   0.0277778   0.3688627   0.0000000), wk =   0.0185185
        k(   31) = (   0.0277778   0.4009377   0.0000000), wk =   0.0185185
        k(   32) = (   0.0277778   0.4330127   0.0000000), wk =   0.0185185
        k(   33) = (   0.0277778   0.4650877   0.0000000), wk =   0.0185185
        k(   34) = (   0.0277778   0.4971627   0.0000000), wk =   0.0185185
        k(   35) = (   0.0277778   0.5292377   0.0000000), wk =   0.0185185
        k(   36) = (   0.0277778   0.5613128   0.0000000), wk =   0.0185185
        k(   37) = (   0.0555556   0.0962250   0.0000000), wk =   0.0092593
        k(   38) = (   0.0555556   0.1283001   0.0000000), wk =   0.0185185
        k(   39) = (   0.0555556   0.1603751   0.0000000), wk =   0.0185185
        k(   40) = (   0.0555556   0.1924501   0.0000000), wk =   0.0185185
        k(   41) = (   0.0555556   0.2245251   0.0000000), wk =   0.0185185
        k(   42) = (   0.0555556   0.2566001   0.0000000), wk =   0.0185185
        k(   43) = (   0.0555556   0.2886751   0.0000000), wk =   0.0185185
        k(   44) = (   0.0555556   0.3207501   0.0000000), wk =   0.0185185
        k(   45) = (   0.0555556   0.3528252   0.0000000), wk =   0.0185185
        k(   46) = (   0.0555556   0.3849002   0.0000000), wk =   0.0185185
        k(   47) = (   0.0555556   0.4169752   0.0000000), wk =   0.0185185
        k(   48) = (   0.0555556   0.4490502   0.0000000), wk =   0.0185185
        k(   49) = (   0.0555556   0.4811252   0.0000000), wk =   0.0185185
        k(   50) = (   0.0555556   0.5132002   0.0000000), wk =   0.0185185
        k(   51) = (   0.0555556   0.5452753   0.0000000), wk =   0.0185185
        k(   52) = (   0.0555556   0.5773503   0.0000000), wk =   0.0092593
        k(   53) = (   0.0833333   0.1443376   0.0000000), wk =   0.0092593
        k(   54) = (   0.0833333   0.1764126   0.0000000), wk =   0.0185185
        k(   55) = (   0.0833333   0.2084876   0.0000000), wk =   0.0185185
        k(   56) = (   0.0833333   0.2405626   0.0000000), wk =   0.0185185
        k(   57) = (   0.0833333   0.2726376   0.0000000), wk =   0.0185185
        k(   58) = (   0.0833333   0.3047126   0.0000000), wk =   0.0185185
        k(   59) = (   0.0833333   0.3367877   0.0000000), wk =   0.0185185
        k(   60) = (   0.0833333   0.3688627   0.0000000), wk =   0.0185185
        k(   61) = (   0.0833333   0.4009377   0.0000000), wk =   0.0185185
        k(   62) = (   0.0833333   0.4330127   0.0000000), wk =   0.0185185
        k(   63) = (   0.0833333   0.4650877   0.0000000), wk =   0.0185185
        k(   64) = (   0.0833333   0.4971627   0.0000000), wk =   0.0185185
        k(   65) = (   0.0833333   0.5292377   0.0000000), wk =   0.0185185
        k(   66) = (   0.0833333   0.5613128   0.0000000), wk =   0.0185185
        k(   67) = (   0.1111111   0.1924501   0.0000000), wk =   0.0092593
        k(   68) = (   0.1111111   0.2245251   0.0000000), wk =   0.0185185
        k(   69) = (   0.1111111   0.2566001   0.0000000), wk =   0.0185185
        k(   70) = (   0.1111111   0.2886751   0.0000000), wk =   0.0185185
        k(   71) = (   0.1111111   0.3207501   0.0000000), wk =   0.0185185
        k(   72) = (   0.1111111   0.3528252   0.0000000), wk =   0.0185185
        k(   73) = (   0.1111111   0.3849002   0.0000000), wk =   0.0185185
        k(   74) = (   0.1111111   0.4169752   0.0000000), wk =   0.0185185
        k(   75) = (   0.1111111   0.4490502   0.0000000), wk =   0.0185185
        k(   76) = (   0.1111111   0.4811252   0.0000000), wk =   0.0185185
        k(   77) = (   0.1111111   0.5132002   0.0000000), wk =   0.0185185
        k(   78) = (   0.1111111   0.5452753   0.0000000), wk =   0.0185185
        k(   79) = (   0.1111111   0.5773503   0.0000000), wk =   0.0092593
        k(   80) = (   0.1388889   0.2405626   0.0000000), wk =   0.0092593
        k(   81) = (   0.1388889   0.2726376   0.0000000), wk =   0.0185185
        k(   82) = (   0.1388889   0.3047126   0.0000000), wk =   0.0185185
        k(   83) = (   0.1388889   0.3367877   0.0000000), wk =   0.0185185
        k(   84) = (   0.1388889   0.3688627   0.0000000), wk =   0.0185185
        k(   85) = (   0.1388889   0.4009377   0.0000000), wk =   0.0185185
        k(   86) = (   0.1388889   0.4330127   0.0000000), wk =   0.0185185
        k(   87) = (   0.1388889   0.4650877   0.0000000), wk =   0.0185185
        k(   88) = (   0.1388889   0.4971627   0.0000000), wk =   0.0185185
        k(   89) = (   0.1388889   0.5292377   0.0000000), wk =   0.0185185
        k(   90) = (   0.1388889   0.5613128   0.0000000), wk =   0.0185185
        k(   91) = (   0.1666667   0.2886751   0.0000000), wk =   0.0092593
        k(   92) = (   0.1666667   0.3207501   0.0000000), wk =   0.0185185
        k(   93) = (   0.1666667   0.3528252   0.0000000), wk =   0.0185185
        k(   94) = (   0.1666667   0.3849002   0.0000000), wk =   0.0185185
        k(   95) = (   0.1666667   0.4169752   0.0000000), wk =   0.0185185
        k(   96) = (   0.1666667   0.4490502   0.0000000), wk =   0.0185185
        k(   97) = (   0.1666667   0.4811252   0.0000000), wk =   0.0185185
        k(   98) = (   0.1666667   0.5132002   0.0000000), wk =   0.0185185
        k(   99) = (   0.1666667   0.5452753   0.0000000), wk =   0.0185185
        k(  100) = (   0.1666667   0.5773503   0.0000000), wk =   0.0092593
        k(  101) = (   0.1944444   0.3367877   0.0000000), wk =   0.0092593
        k(  102) = (   0.1944444   0.3688627   0.0000000), wk =   0.0185185
        k(  103) = (   0.1944444   0.4009377   0.0000000), wk =   0.0185185
        k(  104) = (   0.1944444   0.4330127   0.0000000), wk =   0.0185185
        k(  105) = (   0.1944444   0.4650877   0.0000000), wk =   0.0185185
        k(  106) = (   0.1944444   0.4971627   0.0000000), wk =   0.0185185
        k(  107) = (   0.1944444   0.5292377   0.0000000), wk =   0.0185185
        k(  108) = (   0.1944444   0.5613128   0.0000000), wk =   0.0185185
        k(  109) = (   0.2222222   0.3849002   0.0000000), wk =   0.0092593
        k(  110) = (   0.2222222   0.4169752   0.0000000), wk =   0.0185185
        k(  111) = (   0.2222222   0.4490502   0.0000000), wk =   0.0185185
        k(  112) = (   0.2222222   0.4811252   0.0000000), wk =   0.0185185
        k(  113) = (   0.2222222   0.5132002   0.0000000), wk =   0.0185185
        k(  114) = (   0.2222222   0.5452753   0.0000000), wk =   0.0185185
        k(  115) = (   0.2222222   0.5773503   0.0000000), wk =   0.0092593
        k(  116) = (   0.2500000   0.4330127   0.0000000), wk =   0.0092593
        k(  117) = (   0.2500000   0.4650877   0.0000000), wk =   0.0185185
        k(  118) = (   0.2500000   0.4971627   0.0000000), wk =   0.0185185
        k(  119) = (   0.2500000   0.5292377   0.0000000), wk =   0.0185185
        k(  120) = (   0.2500000   0.5613128   0.0000000), wk =   0.0185185
        k(  121) = (   0.2777778   0.4811252   0.0000000), wk =   0.0092593
        k(  122) = (   0.2777778   0.5132002   0.0000000), wk =   0.0185185
        k(  123) = (   0.2777778   0.5452753   0.0000000), wk =   0.0185185
        k(  124) = (   0.2777778   0.5773503   0.0000000), wk =   0.0092593
        k(  125) = (   0.3055556   0.5292377   0.0000000), wk =   0.0092593
        k(  126) = (   0.3055556   0.5613128   0.0000000), wk =   0.0185185
        k(  127) = (   0.3333333   0.5773503   0.0000000), wk =   0.0030864

                       cryst. coord.
        k(    1) = (   0.0000000   0.0000000   0.0000000), wk =   0.0015432
        k(    2) = (   0.0000000   0.0277778   0.0000000), wk =   0.0092593
        k(    3) = (   0.0000000   0.0555556   0.0000000), wk =   0.0092593
        k(    4) = (   0.0000000   0.0833333   0.0000000), wk =   0.0092593
        k(    5) = (   0.0000000   0.1111111   0.0000000), wk =   0.0092593
        k(    6) = (   0.0000000   0.1388889   0.0000000), wk =   0.0092593
        k(    7) = (   0.0000000   0.1666667   0.0000000), wk =   0.0092593
        k(    8) = (   0.0000000   0.1944444   0.0000000), wk =   0.0092593
        k(    9) = (   0.0000000   0.2222222   0.0000000), wk =   0.0092593
        k(   10) = (   0.0000000   0.2500000   0.0000000), wk =   0.0092593
        k(   11) = (   0.0000000   0.2777778   0.0000000), wk =   0.0092593
        k(   12) = (   0.0000000   0.3055556   0.0000000), wk =   0.0092593
        k(   13) = (   0.0000000   0.3333333   0.0000000), wk =   0.0092593
        k(   14) = (   0.0000000   0.3611111   0.0000000), wk =   0.0092593
        k(   15) = (   0.0000000   0.3888889   0.0000000), wk =   0.0092593
        k(   16) = (   0.0000000   0.4166667   0.0000000), wk =   0.0092593
        k(   17) = (   0.0000000   0.4444444   0.0000000), wk =   0.0092593
        k(   18) = (   0.0000000   0.4722222   0.0000000), wk =   0.0092593
        k(   19) = (   0.0000000  -0.5000000   0.0000000), wk =   0.0046296
        k(   20) = (   0.0277778   0.0277778   0.0000000), wk =   0.0092593
        k(   21) = (   0.0277778   0.0555556   0.0000000), wk =   0.0185185
        k(   22) = (   0.0277778   0.0833333   0.0000000), wk =   0.0185185
        k(   23) = (   0.0277778   0.1111111   0.0000000), wk =   0.0185185
        k(   24) = (   0.0277778   0.1388889   0.0000000), wk =   0.0185185
        k(   25) = (   0.0277778   0.1666667   0.0000000), wk =   0.0185185
        k(   26) = (   0.0277778   0.1944444   0.0000000), wk =   0.0185185
        k(   27) = (   0.0277778   0.2222222   0.0000000), wk =   0.0185185
        k(   28) = (   0.0277778   0.2500000   0.0000000), wk =   0.0185185
        k(   29) = (   0.0277778   0.2777778   0.0000000), wk =   0.0185185
        k(   30) = (   0.0277778   0.3055556   0.0000000), wk =   0.0185185
        k(   31) = (   0.0277778   0.3333333   0.0000000), wk =   0.0185185
        k(   32) = (   0.0277778   0.3611111   0.0000000), wk =   0.0185185
        k(   33) = (   0.0277778   0.3888889   0.0000000), wk =   0.0185185
        k(   34) = (   0.0277778   0.4166667   0.0000000), wk =   0.0185185
        k(   35) = (   0.0277778   0.4444444   0.0000000), wk =   0.0185185
        k(   36) = (   0.0277778   0.4722222   0.0000000), wk =   0.0185185
        k(   37) = (   0.0555556   0.0555556   0.0000000), wk =   0.0092593
        k(   38) = (   0.0555556   0.0833333   0.0000000), wk =   0.0185185
        k(   39) = (   0.0555556   0.1111111   0.0000000), wk =   0.0185185
        k(   40) = (   0.0555556   0.1388889   0.0000000), wk =   0.0185185
        k(   41) = (   0.0555556   0.1666667   0.0000000), wk =   0.0185185
        k(   42) = (   0.0555556   0.1944444   0.0000000), wk =   0.0185185
        k(   43) = (   0.0555556   0.2222222   0.0000000), wk =   0.0185185
        k(   44) = (   0.0555556   0.2500000   0.0000000), wk =   0.0185185
        k(   45) = (   0.0555556   0.2777778   0.0000000), wk =   0.0185185
        k(   46) = (   0.0555556   0.3055556   0.0000000), wk =   0.0185185
        k(   47) = (   0.0555556   0.3333333   0.0000000), wk =   0.0185185
        k(   48) = (   0.0555556   0.3611111   0.0000000), wk =   0.0185185
        k(   49) = (   0.0555556   0.3888889   0.0000000), wk =   0.0185185
        k(   50) = (   0.0555556   0.4166667   0.0000000), wk =   0.0185185
        k(   51) = (   0.0555556   0.4444444   0.0000000), wk =   0.0185185
        k(   52) = (   0.0555556   0.4722222   0.0000000), wk =   0.0092593
        k(   53) = (   0.0833333   0.0833333   0.0000000), wk =   0.0092593
        k(   54) = (   0.0833333   0.1111111   0.0000000), wk =   0.0185185
        k(   55) = (   0.0833333   0.1388889   0.0000000), wk =   0.0185185
        k(   56) = (   0.0833333   0.1666667   0.0000000), wk =   0.0185185
        k(   57) = (   0.0833333   0.1944444   0.0000000), wk =   0.0185185
        k(   58) = (   0.0833333   0.2222222   0.0000000), wk =   0.0185185
        k(   59) = (   0.0833333   0.2500000   0.0000000), wk =   0.0185185
        k(   60) = (   0.0833333   0.2777778   0.0000000), wk =   0.0185185
        k(   61) = (   0.0833333   0.3055556   0.0000000), wk =   0.0185185
        k(   62) = (   0.0833333   0.3333333   0.0000000), wk =   0.0185185
        k(   63) = (   0.0833333   0.3611111   0.0000000), wk =   0.0185185
        k(   64) = (   0.0833333   0.3888889   0.0000000), wk =   0.0185185
        k(   65) = (   0.0833333   0.4166667   0.0000000), wk =   0.0185185
        k(   66) = (   0.0833333   0.4444444   0.0000000), wk =   0.0185185
        k(   67) = (   0.1111111   0.1111111   0.0000000), wk =   0.0092593
        k(   68) = (   0.1111111   0.1388889   0.0000000), wk =   0.0185185
        k(   69) = (   0.1111111   0.1666667   0.0000000), wk =   0.0185185
        k(   70) = (   0.1111111   0.1944444   0.0000000), wk =   0.0185185
        k(   71) = (   0.1111111   0.2222222   0.0000000), wk =   0.0185185
        k(   72) = (   0.1111111   0.2500000   0.0000000), wk =   0.0185185
        k(   73) = (   0.1111111   0.2777778   0.0000000), wk =   0.0185185
        k(   74) = (   0.1111111   0.3055556   0.0000000), wk =   0.0185185
        k(   75) = (   0.1111111   0.3333333   0.0000000), wk =   0.0185185
        k(   76) = (   0.1111111   0.3611111   0.0000000), wk =   0.0185185
        k(   77) = (   0.1111111   0.3888889   0.0000000), wk =   0.0185185
        k(   78) = (   0.1111111   0.4166667   0.0000000), wk =   0.0185185
        k(   79) = (   0.1111111   0.4444444   0.0000000), wk =   0.0092593
        k(   80) = (   0.1388889   0.1388889   0.0000000), wk =   0.0092593
        k(   81) = (   0.1388889   0.1666667   0.0000000), wk =   0.0185185
        k(   82) = (   0.1388889   0.1944444   0.0000000), wk =   0.0185185
        k(   83) = (   0.1388889   0.2222222   0.0000000), wk =   0.0185185
        k(   84) = (   0.1388889   0.2500000   0.0000000), wk =   0.0185185
        k(   85) = (   0.1388889   0.2777778   0.0000000), wk =   0.0185185
        k(   86) = (   0.1388889   0.3055556   0.0000000), wk =   0.0185185
        k(   87) = (   0.1388889   0.3333333   0.0000000), wk =   0.0185185
        k(   88) = (   0.1388889   0.3611111   0.0000000), wk =   0.0185185
        k(   89) = (   0.1388889   0.3888889   0.0000000), wk =   0.0185185
        k(   90) = (   0.1388889   0.4166667   0.0000000), wk =   0.0185185
        k(   91) = (   0.1666667   0.1666667   0.0000000), wk =   0.0092593
        k(   92) = (   0.1666667   0.1944444   0.0000000), wk =   0.0185185
        k(   93) = (   0.1666667   0.2222222   0.0000000), wk =   0.0185185
        k(   94) = (   0.1666667   0.2500000   0.0000000), wk =   0.0185185
        k(   95) = (   0.1666667   0.2777778   0.0000000), wk =   0.0185185
        k(   96) = (   0.1666667   0.3055556   0.0000000), wk =   0.0185185
        k(   97) = (   0.1666667   0.3333333   0.0000000), wk =   0.0185185
        k(   98) = (   0.1666667   0.3611111   0.0000000), wk =   0.0185185
        k(   99) = (   0.1666667   0.3888889   0.0000000), wk =   0.0185185
        k(  100) = (   0.1666667   0.4166667   0.0000000), wk =   0.0092593
        k(  101) = (   0.1944444   0.1944444   0.0000000), wk =   0.0092593
        k(  102) = (   0.1944444   0.2222222   0.0000000), wk =   0.0185185
        k(  103) = (   0.1944444   0.2500000   0.0000000), wk =   0.0185185
        k(  104) = (   0.1944444   0.2777778   0.0000000), wk =   0.0185185
        k(  105) = (   0.1944444   0.3055556   0.0000000), wk =   0.0185185
        k(  106) = (   0.1944444   0.3333333   0.0000000), wk =   0.0185185
        k(  107) = (   0.1944444   0.3611111   0.0000000), wk =   0.0185185
        k(  108) = (   0.1944444   0.3888889   0.0000000), wk =   0.0185185
        k(  109) = (   0.2222222   0.2222222   0.0000000), wk =   0.0092593
        k(  110) = (   0.2222222   0.2500000   0.0000000), wk =   0.0185185
        k(  111) = (   0.2222222   0.2777778   0.0000000), wk =   0.0185185
        k(  112) = (   0.2222222   0.3055556   0.0000000), wk =   0.0185185
        k(  113) = (   0.2222222   0.3333333   0.0000000), wk =   0.0185185
        k(  114) = (   0.2222222   0.3611111   0.0000000), wk =   0.0185185
        k(  115) = (   0.2222222   0.3888889   0.0000000), wk =   0.0092593
        k(  116) = (   0.2500000   0.2500000   0.0000000), wk =   0.0092593
        k(  117) = (   0.2500000   0.2777778   0.0000000), wk =   0.0185185
        k(  118) = (   0.2500000   0.3055556   0.0000000), wk =   0.0185185
        k(  119) = (   0.2500000   0.3333333   0.0000000), wk =   0.0185185
        k(  120) = (   0.2500000   0.3611111   0.0000000), wk =   0.0185185
        k(  121) = (   0.2777778   0.2777778   0.0000000), wk =   0.0092593
        k(  122) = (   0.2777778   0.3055556   0.0000000), wk =   0.0185185
        k(  123) = (   0.2777778   0.3333333   0.0000000), wk =   0.0185185
        k(  124) = (   0.2777778   0.3611111   0.0000000), wk =   0.0092593
        k(  125) = (   0.3055556   0.3055556   0.0000000), wk =   0.0092593
        k(  126) = (   0.3055556   0.3333333   0.0000000), wk =   0.0185185
        k(  127) = (   0.3333333   0.3333333   0.0000000), wk =   0.0030864

     Dense  grid:    96043 G-vectors     FFT dimensions: (  30,  30, 250)

     Dynamical RAM for                 wfc:       0.73 MB

     Dynamical RAM for     wfc (w. buffer):       0.73 MB

     Dynamical RAM for           str. fact:       0.73 MB

     Dynamical RAM for           local pot:       0.00 MB

     Dynamical RAM for          nlocal pot:       1.47 MB

     Dynamical RAM for                qrad:       0.46 MB

     Dynamical RAM for          rho,v,vnew:       4.77 MB

     Dynamical RAM for           G-vectors:       3.11 MB

     Dynamical RAM for          h,s,v(r/c):       0.01 MB

     Dynamical RAM for          <psi|beta>:       0.00 MB

     Dynamical RAM for                 psi:       1.47 MB

     Dynamical RAM for                hpsi:       1.47 MB

     Dynamical RAM for                spsi:       1.47 MB

     Dynamical RAM for      wfcinit/wfcrot:       1.47 MB

     Dynamical RAM for           addusdens:      32.97 MB

     Estimated static dynamical RAM per process >      17.03 MB

     Estimated max dynamical RAM per process >      50.01 MB

     Estimated total dynamical RAM >     100.01 MB

     Check: negative core charge=   -0.000002

     The potential is recalculated from file :
     ./tmp/graphene1.save/charge-density


     negative rho (up, down):  1.264E-04 0.000E+00
     Starting wfcs are    8 randomized atomic wfcs
     Checking if some PAW data can be deallocated... 

     Band Structure Calculation
     Davidson diagonalization with overlap

     Computing kpt #:     1  of   127
     total cpu time spent up to now is        5.2 secs

     Computing kpt #:     2  of   127
     total cpu time spent up to now is        9.5 secs

     Computing kpt #:     3  of   127
     total cpu time spent up to now is       13.0 secs

     Computing kpt #:     4  of   127
     total cpu time spent up to now is       17.6 secs

     Computing kpt #:     5  of   127
     total cpu time spent up to now is       24.5 secs

     Computing kpt #:     6  of   127
     total cpu time spent up to now is       29.1 secs

     Computing kpt #:     7  of   127
     total cpu time spent up to now is       33.5 secs

     Computing kpt #:     8  of   127
     total cpu time spent up to now is       38.1 secs

     Computing kpt #:     9  of   127
     total cpu time spent up to now is       43.5 secs

     Computing kpt #:    10  of   127
     total cpu time spent up to now is       48.0 secs

     Computing kpt #:    11  of   127
     total cpu time spent up to now is       51.6 secs

     Computing kpt #:    12  of   127
     total cpu time spent up to now is       55.3 secs

     Computing kpt #:    13  of   127
     c_bands:  1 eigenvalues not converged
     total cpu time spent up to now is       61.0 secs

     Computing kpt #:    14  of   127
     total cpu time spent up to now is       64.6 secs

     Computing kpt #:    15  of   127
     total cpu time spent up to now is       68.3 secs

     Computing kpt #:    16  of   127
     total cpu time spent up to now is       71.5 secs

     Computing kpt #:    17  of   127
     total cpu time spent up to now is       75.0 secs

     Computing kpt #:    18  of   127
     total cpu time spent up to now is       78.0 secs

     Computing kpt #:    19  of   127
     total cpu time spent up to now is       80.6 secs

     Computing kpt #:    20  of   127
     total cpu time spent up to now is       83.7 secs

     Computing kpt #:    21  of   127
     total cpu time spent up to now is       87.1 secs

     Computing kpt #:    22  of   127
     total cpu time spent up to now is       90.4 secs

     Computing kpt #:    23  of   127
     total cpu time spent up to now is       94.3 secs

     Computing kpt #:    24  of   127
     total cpu time spent up to now is       98.0 secs

     Computing kpt #:    25  of   127
     total cpu time spent up to now is      101.7 secs

     Computing kpt #:    26  of   127
     total cpu time spent up to now is      105.5 secs

     Computing kpt #:    27  of   127
     total cpu time spent up to now is      109.5 secs

     Computing kpt #:    28  of   127
     total cpu time spent up to now is      113.2 secs

     Computing kpt #:    29  of   127
     total cpu time spent up to now is      116.7 secs

     Computing kpt #:    30  of   127
     total cpu time spent up to now is      120.1 secs

     Computing kpt #:    31  of   127
     total cpu time spent up to now is      124.4 secs

     Computing kpt #:    32  of   127
     total cpu time spent up to now is      127.8 secs

     Computing kpt #:    33  of   127
     total cpu time spent up to now is      131.4 secs

     Computing kpt #:    34  of   127
     total cpu time spent up to now is      135.0 secs

     Computing kpt #:    35  of   127
     total cpu time spent up to now is      139.2 secs

     Computing kpt #:    36  of   127
     total cpu time spent up to now is      143.6 secs

     Computing kpt #:    37  of   127
     total cpu time spent up to now is      147.3 secs

     Computing kpt #:    38  of   127
     total cpu time spent up to now is      151.2 secs

     Computing kpt #:    39  of   127
     total cpu time spent up to now is      156.0 secs

     Computing kpt #:    40  of   127
     total cpu time spent up to now is      159.8 secs

     Computing kpt #:    41  of   127
     total cpu time spent up to now is      163.9 secs

     Computing kpt #:    42  of   127
     total cpu time spent up to now is      168.3 secs

     Computing kpt #:    43  of   127
     total cpu time spent up to now is      173.6 secs

     Computing kpt #:    44  of   127
     total cpu time spent up to now is      178.1 secs

     Computing kpt #:    45  of   127
     total cpu time spent up to now is      181.6 secs

     Computing kpt #:    46  of   127
     total cpu time spent up to now is      186.3 secs

     Computing kpt #:    47  of   127
     total cpu time spent up to now is      190.5 secs

     Computing kpt #:    48  of   127
     total cpu time spent up to now is      194.1 secs

     Computing kpt #:    49  of   127
     total cpu time spent up to now is      197.5 secs

     Computing kpt #:    50  of   127
     total cpu time spent up to now is      202.2 secs

     Computing kpt #:    51  of   127
     total cpu time spent up to now is      205.5 secs

     Computing kpt #:    52  of   127
     total cpu time spent up to now is      208.9 secs

     Computing kpt #:    53  of   127
     total cpu time spent up to now is      212.3 secs

     Computing kpt #:    54  of   127
     total cpu time spent up to now is      216.6 secs

     Computing kpt #:    55  of   127
     total cpu time spent up to now is      220.4 secs

     Computing kpt #:    56  of   127
     total cpu time spent up to now is      224.1 secs

     Computing kpt #:    57  of   127
     total cpu time spent up to now is      228.2 secs

     Computing kpt #:    58  of   127
     total cpu time spent up to now is      231.7 secs

     Computing kpt #:    59  of   127
     total cpu time spent up to now is      235.2 secs

     Computing kpt #:    60  of   127
     total cpu time spent up to now is      238.7 secs

     Computing kpt #:    61  of   127
     total cpu time spent up to now is      244.9 secs

     Computing kpt #:    62  of   127
     total cpu time spent up to now is      250.0 secs

     Computing kpt #:    63  of   127
     total cpu time spent up to now is      253.4 secs

     Computing kpt #:    64  of   127
     total cpu time spent up to now is      256.6 secs

     Computing kpt #:    65  of   127
     total cpu time spent up to now is      259.9 secs

     Computing kpt #:    66  of   127
     total cpu time spent up to now is      263.6 secs

     Computing kpt #:    67  of   127
     total cpu time spent up to now is      267.1 secs

     Computing kpt #:    68  of   127
     total cpu time spent up to now is      270.9 secs

     Computing kpt #:    69  of   127
     total cpu time spent up to now is      274.7 secs

     Computing kpt #:    70  of   127
     total cpu time spent up to now is      278.1 secs

     Computing kpt #:    71  of   127
     total cpu time spent up to now is      281.4 secs

     Computing kpt #:    72  of   127
     total cpu time spent up to now is      284.7 secs

     Computing kpt #:    73  of   127
     total cpu time spent up to now is      288.3 secs

     Computing kpt #:    74  of   127
     total cpu time spent up to now is      292.7 secs

     Computing kpt #:    75  of   127
     total cpu time spent up to now is      296.4 secs

     Computing kpt #:    76  of   127
     total cpu time spent up to now is      299.9 secs

     Computing kpt #:    77  of   127
     total cpu time spent up to now is      303.1 secs

     Computing kpt #:    78  of   127
     total cpu time spent up to now is      306.1 secs

     Computing kpt #:    79  of   127
     total cpu time spent up to now is      309.4 secs

     Computing kpt #:    80  of   127
     total cpu time spent up to now is      312.8 secs

     Computing kpt #:    81  of   127
     total cpu time spent up to now is      316.3 secs

     Computing kpt #:    82  of   127
     total cpu time spent up to now is      319.5 secs

     Computing kpt #:    83  of   127
     total cpu time spent up to now is      322.7 secs

     Computing kpt #:    84  of   127
     total cpu time spent up to now is      325.9 secs

     Computing kpt #:    85  of   127
     total cpu time spent up to now is      329.3 secs

     Computing kpt #:    86  of   127
     total cpu time spent up to now is      333.7 secs

     Computing kpt #:    87  of   127
     total cpu time spent up to now is      337.4 secs

     Computing kpt #:    88  of   127
     total cpu time spent up to now is      340.9 secs

     Computing kpt #:    89  of   127
     total cpu time spent up to now is      344.4 secs

     Computing kpt #:    90  of   127
     total cpu time spent up to now is      348.1 secs

     Computing kpt #:    91  of   127
     total cpu time spent up to now is      351.3 secs

     Computing kpt #:    92  of   127
     total cpu time spent up to now is      354.5 secs

     Computing kpt #:    93  of   127
     total cpu time spent up to now is      357.8 secs

     Computing kpt #:    94  of   127
     total cpu time spent up to now is      361.0 secs

     Computing kpt #:    95  of   127
     total cpu time spent up to now is      364.2 secs

     Computing kpt #:    96  of   127
     total cpu time spent up to now is      367.9 secs

     Computing kpt #:    97  of   127
     total cpu time spent up to now is      371.5 secs

     Computing kpt #:    98  of   127
     total cpu time spent up to now is      375.0 secs

     Computing kpt #:    99  of   127
     total cpu time spent up to now is      378.0 secs

     Computing kpt #:   100  of   127
     total cpu time spent up to now is      382.2 secs

     Computing kpt #:   101  of   127
     total cpu time spent up to now is      385.4 secs

     Computing kpt #:   102  of   127
     total cpu time spent up to now is      388.4 secs

     Computing kpt #:   103  of   127
     total cpu time spent up to now is      391.5 secs

     Computing kpt #:   104  of   127
     total cpu time spent up to now is      394.7 secs

     Computing kpt #:   105  of   127
     total cpu time spent up to now is      398.4 secs

     Computing kpt #:   106  of   127
     total cpu time spent up to now is      401.9 secs

     Computing kpt #:   107  of   127
     total cpu time spent up to now is      405.6 secs

     Computing kpt #:   108  of   127
     total cpu time spent up to now is      408.5 secs

     Computing kpt #:   109  of   127
     total cpu time spent up to now is      411.7 secs

     Computing kpt #:   110  of   127
     total cpu time spent up to now is      414.9 secs

     Computing kpt #:   111  of   127
     total cpu time spent up to now is      418.1 secs

     Computing kpt #:   112  of   127
     total cpu time spent up to now is      421.6 secs

     Computing kpt #:   113  of   127
     total cpu time spent up to now is      425.3 secs

     Computing kpt #:   114  of   127
     total cpu time spent up to now is      428.4 secs

     Computing kpt #:   115  of   127
     total cpu time spent up to now is      431.8 secs

     Computing kpt #:   116  of   127
     total cpu time spent up to now is      434.9 secs

     Computing kpt #:   117  of   127
     total cpu time spent up to now is      438.1 secs

     Computing kpt #:   118  of   127
     total cpu time spent up to now is      441.6 secs

     Computing kpt #:   119  of   127
     total cpu time spent up to now is      445.2 secs

     Computing kpt #:   120  of   127
     total cpu time spent up to now is      448.3 secs

     Computing kpt #:   121  of   127
     total cpu time spent up to now is      451.6 secs

     Computing kpt #:   122  of   127
     total cpu time spent up to now is      455.4 secs

     Computing kpt #:   123  of   127
     total cpu time spent up to now is      458.8 secs

     Computing kpt #:   124  of   127
     total cpu time spent up to now is      461.9 secs

     Computing kpt #:   125  of   127
     total cpu time spent up to now is      465.7 secs

     Computing kpt #:   126  of   127
     total cpu time spent up to now is      468.9 secs

     Computing kpt #:   127  of   127
     total cpu time spent up to now is      471.8 secs

     ethr =  1.25E-12,  avg # of iterations = 65.2

     total cpu time spent up to now is      471.8 secs

     End of band structure calculation

          k = 0.0000 0.0000 0.0000 ( 12127 PWs)   bands (ev):

   -21.8726  -9.9685  -5.4084  -5.4084   0.8483   1.5151   1.6446   2.6545

     occupation numbers 
     1.0000   1.0000   1.0000   1.0000   0.0000   0.0000   0.0000   0.0000

          k = 0.0000 0.0321 0.0000 ( 12083 PWs)   bands (ev):

   -21.8544  -9.9467  -5.4842  -5.4485   0.8731   1.5402   1.6699   2.6796

     occupation numbers 
     1.0000   1.0000   1.0000   1.0000   0.0000   0.0000   0.0000   0.0000

          k = 0.0000 0.0642 0.0000 ( 12075 PWs)   bands (ev):

   -21.7998  -9.8814  -5.7060  -5.5647   0.9475   1.6157   1.7458   2.7548

     occupation numbers 
     1.0000   1.0000   1.0000   1.0000   0.0000   0.0000   0.0000   0.0000

          k = 0.0000 0.0962 0.0000 ( 12085 PWs)   bands (ev):

   -21.7088  -9.7727  -6.0592  -5.7466   1.0715   1.7414   1.8724   2.8801

     occupation numbers 
     1.0000   1.0000   1.0000   1.0000   0.0000   0.0000   0.0000   0.0000

          k = 0.0000 0.1283 0.0000 ( 12079 PWs)   bands (ev):

   -21.5817  -9.6210  -6.5233  -5.9797   1.2452   1.9174   2.0496   3.0555

     occupation numbers 
     1.0000   1.0000   1.0000   1.0000   0.0000   0.0000   0.0000   0.0000

          k = 0.0000 0.1604 0.0000 ( 12073 PWs)   bands (ev):

   -21.4184  -9.4267  -7.0762  -6.2486   1.4684   2.1435   2.2774   3.2807

     occupation numbers 
     1.0000   1.0000   1.0000   1.0000   0.0000   0.0000   0.0000   0.0000

          k = 0.0000 0.1925 0.0000 ( 12065 PWs)   bands (ev):

   -21.2193  -9.1906  -7.6969  -6.5384   1.7411   2.4195   2.5559   3.5556

     occupation numbers 
     1.0000   1.0000   1.0000   1.0000   0.0000   0.0000   0.0000   0.0000

          k = 0.0000 0.2245 0.0000 ( 12031 PWs)   bands (ev):

   -20.9846  -8.9134  -8.3668  -6.8366   2.0632   2.7452   2.8849   3.8795

     occupation numbers 
     1.0000   1.0000   1.0000   1.0000   0.0000   0.0000   0.0000   0.0000

          k = 0.0000 0.2566 0.0000 ( 12037 PWs)   bands (ev):

   -20.7146  -9.0704  -8.5965  -7.1325   2.4345   3.1197   3.2646   4.2500

     occupation numbers 
     1.0000   1.0000   1.0000   1.0000   0.0000   0.0000   0.0000   0.0000

          k = 0.0000 0.2887 0.0000 ( 12035 PWs)   bands (ev):

   -20.4098  -9.7948  -8.2414  -7.4178   2.8548   3.5392   3.6948   4.6265

     occupation numbers 
     1.0000   1.0000   1.0000   1.0000   0.0000   0.0000   0.0000   0.0000

          k = 0.0000 0.3208 0.0000 ( 12045 PWs)   bands (ev):

   -20.0706 -10.5296  -7.8504  -7.6858   3.3237   3.9166   4.1754   4.2122

     occupation numbers 
     1.0000   1.0000   1.0000   1.0000   0.0000   0.0000   0.0000   0.0000

          k = 0.0000 0.3528 0.0000 ( 12025 PWs)   bands (ev):

   -19.6978 -11.2661  -7.9315  -7.4268   3.3136   3.8402   4.5750   4.7056

     occupation numbers 
     1.0000   1.0000   1.0000   1.0000   0.0000   0.0000   0.0000   0.0000

          k = 0.0000 0.3849 0.0000 ( 12033 PWs)   bands (ev):

   -19.2924 -11.9971  -8.1509  -6.9753   2.5518   4.4018   5.1418   5.2669

     occupation numbers 
     1.0000   1.0000   1.0000   1.0000   0.0000   0.0000   0.0000   0.0000

          k = 0.0000 0.4170 0.0000 ( 12011 PWs)   bands (ev):

   -18.8555 -12.7165  -8.3408  -6.5034   1.7996   4.9827   5.2991   5.7633

     occupation numbers 
     1.0000   1.0000   1.0000   1.0000   0.0000   0.0000   0.0000   0.0000

          k = 0.0000 0.4491 0.0000 ( 12005 PWs)   bands (ev):

   -18.3895 -13.4184  -8.4989  -6.0232   1.0806   5.1498   5.7170   6.4342

     occupation numbers 
     1.0000   1.0000   1.0000   1.0000   0.0000   0.0000   0.0000   0.0000

          k = 0.0000 0.4811 0.0000 ( 11979 PWs)   bands (ev):

   -17.8984 -14.0956  -8.6236  -5.5554   0.4216   5.1000   6.4120   7.1529

     occupation numbers 
     1.0000   1.0000   1.0000   1.0000   0.0000   0.0000   0.0000   0.0000

          k = 0.0000 0.5132 0.0000 ( 11990 PWs)   bands (ev):

   -17.3924 -14.7360  -8.7135  -5.1368  -0.1364   5.0569   7.1619   7.9172

     occupation numbers 
     1.0000   1.0000   1.0000   1.0000   0.0000   0.0000   0.0000   0.0000

          k = 0.0000 0.5453 0.0000 ( 11992 PWs)   bands (ev):

   -16.9081 -15.3014  -8.7677  -4.8294  -0.5285   5.0297   7.9558   8.7234

     occupation numbers 
     1.0000   1.0000   1.0000   1.0000   0.0000   0.0000   0.0000   0.0000

          k = 0.0000-0.5774 0.0000 ( 11964 PWs)   bands (ev):

   -16.6390 -15.5977  -8.7859  -4.7128  -0.6735   5.0205   8.7234   8.8655

     occupation numbers 
     1.0000   1.0000   1.0000   1.0000   0.0000   0.0000   0.0000   0.0000

          k = 0.0278 0.0481 0.0000 ( 12079 PWs)   bands (ev):

   -21.8180  -9.9031  -5.6310  -5.5285   0.9227   1.5905   1.7205   2.7297

     occupation numbers 
     1.0000   1.0000   1.0000   1.0000   0.0000   0.0000   0.0000   0.0000

          k = 0.0278 0.0802 0.0000 ( 12075 PWs)   bands (ev):

   -21.7452  -9.8161  -5.9136  -5.6826   1.0219   1.6911   1.8217   2.8300

     occupation numbers 
     1.0000   1.0000   1.0000   1.0000   0.0000   0.0000   0.0000   0.0000

          k = 0.0278 0.1123 0.0000 ( 12085 PWs)   bands (ev):

   -21.6362  -9.6859  -6.3160  -5.8965   1.1708   1.8420   1.9736   2.9803

     occupation numbers 
     1.0000   1.0000   1.0000   1.0000   0.0000   0.0000   0.0000   0.0000

          k = 0.0278 0.1443 0.0000 ( 12069 PWs)   bands (ev):

   -21.4909  -9.5130  -6.8182  -6.1539   1.3692   2.0430   2.1761   3.1806

     occupation numbers 
     1.0000   1.0000   1.0000   1.0000   0.0000   0.0000   0.0000   0.0000

          k = 0.0278 0.1764 0.0000 ( 12065 PWs)   bands (ev):

   -21.3098  -9.2977  -7.3993  -6.4391   1.6172   2.2941   2.4293   3.4307

     occupation numbers 
     1.0000   1.0000   1.0000   1.0000   0.0000   0.0000   0.0000   0.0000

          k = 0.0278 0.2085 0.0000 ( 12055 PWs)   bands (ev):

   -21.0928  -9.0410  -8.0399  -6.7380   1.9146   2.5951   2.7331   3.7303

     occupation numbers 
     1.0000   1.0000   1.0000   1.0000   0.0000   0.0000   0.0000   0.0000

          k = 0.0278 0.2406 0.0000 ( 12052 PWs)   bands (ev):

   -20.8405  -8.7439  -8.7228  -7.0390   2.2614   2.9453   3.0875   4.0781

     occupation numbers 
     1.0000   1.0000   1.0000   1.0000   0.0000   0.0000   0.0000   0.0000

          k = 0.0278 0.2726 0.0000 ( 12037 PWs)   bands (ev):

   -20.5531  -9.4338  -8.4077  -7.3327   2.6572   3.3433   3.4924   4.4671

     occupation numbers 
     1.0000   1.0000   1.0000   1.0000   0.0000   0.0000   0.0000   0.0000

          k = 0.0278 0.3047 0.0000 ( 12038 PWs)   bands (ev):

   -20.2311 -10.1610  -8.0345  -7.6118   3.1019   3.7768   3.9479   4.4738

     occupation numbers 
     1.0000   1.0000   1.0000   1.0000   0.0000   0.0000   0.0000   0.0000

          k = 0.0278 0.3368 0.0000 ( 12041 PWs)   bands (ev):

   -19.8751 -10.8949  -7.8705  -7.6268   3.5949   3.6699   4.3381   4.4535

     occupation numbers 
     1.0000   1.0000   1.0000   1.0000   0.0000   0.0000   0.0000   0.0000

          k = 0.0278 0.3689 0.0000 ( 12032 PWs)   bands (ev):

   -19.4860 -11.6273  -8.1043  -7.1887   2.9220   4.1349   4.8682   5.0078

     occupation numbers 
     1.0000   1.0000   1.0000   1.0000   0.0000   0.0000   0.0000   0.0000

          k = 0.0278 0.4009 0.0000 ( 12032 PWs)   bands (ev):

   -19.0647 -12.3516  -8.3100  -6.7259   2.1639   4.7164   5.3914   5.4637

     occupation numbers 
     1.0000   1.0000   1.0000   1.0000   0.0000   0.0000   0.0000   0.0000

          k = 0.0278 0.4330 0.0000 ( 12017 PWs)   bands (ev):

   -18.6131 -13.0617  -8.4847  -6.2479   1.4275   5.2145   5.4537   6.1100

     occupation numbers 
     1.0000   1.0000   1.0000   1.0000   0.0000   0.0000   0.0000   0.0000

          k = 0.0278 0.4651 0.0000 ( 11995 PWs)   bands (ev):

   -18.1340 -13.7512  -8.6266  -5.7704   0.7361   5.2080   6.0749   6.8046

     occupation numbers 
     1.0000   1.0000   1.0000   1.0000   0.0000   0.0000   0.0000   0.0000

          k = 0.0278 0.4972 0.0000 ( 11967 PWs)   bands (ev):

   -17.6337 -14.4114  -8.7342  -5.3210   0.1222   5.1597   6.7991   7.5457

     occupation numbers 
     1.0000   1.0000   1.0000   1.0000   0.0000   0.0000   0.0000   0.0000

          k = 0.0278 0.5292 0.0000 ( 11976 PWs)   bands (ev):

   -17.1303 -15.0223  -8.8065  -4.9481  -0.3622   5.1242   7.5714   8.3305

     occupation numbers 
     1.0000   1.0000   1.0000   1.0000   0.0000   0.0000   0.0000   0.0000

          k = 0.0278 0.5613 0.0000 ( 11980 PWs)   bands (ev):

   -16.7071 -15.4996  -8.8428  -4.7262  -0.6403   5.1060   8.3831   9.1503

     occupation numbers 
     1.0000   1.0000   1.0000   1.0000   0.0000   0.0000   0.0000   0.0000

          k = 0.0556 0.0962 0.0000 ( 12075 PWs)   bands (ev):

   -21.6543  -9.7076  -6.2366  -5.8774   1.1460   1.8169   1.9483   2.9553

     occupation numbers 
     1.0000   1.0000   1.0000   1.0000   0.0000   0.0000   0.0000   0.0000

          k = 0.0556 0.1283 0.0000 ( 12075 PWs)   bands (ev):

   -21.5272  -9.5561  -6.6634  -6.1294   1.3196   1.9928   2.1255   3.1306

     occupation numbers 
     1.0000   1.0000   1.0000   1.0000   0.0000   0.0000   0.0000   0.0000

          k = 0.0556 0.1604 0.0000 ( 12072 PWs)   bands (ev):

   -21.3641  -9.3621  -7.1795  -6.4178   1.5429   2.2189   2.3534   3.3558

     occupation numbers 
     1.0000   1.0000   1.0000   1.0000   0.0000   0.0000   0.0000   0.0000

          k = 0.0556 0.1925 0.0000 ( 12070 PWs)   bands (ev):

   -21.1651  -9.1263  -7.7679  -6.7250   1.8156   2.4949   2.6319   3.6307

     occupation numbers 
     1.0000   1.0000   1.0000   1.0000   0.0000   0.0000   0.0000   0.0000

          k = 0.0556 0.2245 0.0000 ( 12053 PWs)   bands (ev):

   -20.9306  -8.8495  -8.4112  -7.0373   2.1378   2.8206   2.9610   3.9547

     occupation numbers 
     1.0000   1.0000   1.0000   1.0000   0.0000   0.0000   0.0000   0.0000

          k = 0.0556 0.2566 0.0000 ( 12051 PWs)   bands (ev):

   -20.6608  -9.0935  -8.5330  -7.3444   2.5092   3.1951   3.3407   4.3254

     occupation numbers 
     1.0000   1.0000   1.0000   1.0000   0.0000   0.0000   0.0000   0.0000

          k = 0.0556 0.2887 0.0000 ( 12038 PWs)   bands (ev):

   -20.3562  -9.8012  -8.1784  -7.6381   2.9296   3.6147   3.7709   4.6710

     occupation numbers 
     1.0000   1.0000   1.0000   1.0000   0.0000   0.0000   0.0000   0.0000

          k = 0.0556 0.3208 0.0000 ( 12034 PWs)   bands (ev):

   -20.0174 -10.5230  -7.9125  -7.7879   3.3986   3.9346   4.2014   4.2516

     occupation numbers 
     1.0000   1.0000   1.0000   1.0000   0.0000   0.0000   0.0000   0.0000

          k = 0.0556 0.3528 0.0000 ( 12032 PWs)   bands (ev):

   -19.6450 -11.2494  -8.1628  -7.3648   3.2630   3.9157   4.6430   4.7824

     occupation numbers 
     1.0000   1.0000   1.0000   1.0000   0.0000   0.0000   0.0000   0.0000

          k = 0.0556 0.3849 0.0000 ( 12034 PWs)   bands (ev):

   -19.2400 -11.9726  -8.3855  -6.9137   2.5098   4.4791   5.2118   5.3602

     occupation numbers 
     1.0000   1.0000   1.0000   1.0000   0.0000   0.0000   0.0000   0.0000

          k = 0.0556 0.4170 0.0000 ( 12019 PWs)   bands (ev):

   -18.8037 -12.6859  -8.5778  -6.4420   1.7668   5.0799   5.5999   5.8329

     occupation numbers 
     1.0000   1.0000   1.0000   1.0000   0.0000   0.0000   0.0000   0.0000

          k = 0.0556 0.4491 0.0000 ( 12010 PWs)   bands (ev):

   -18.3384 -13.3829  -8.7377  -5.9617   1.0553   5.4610   5.8055   6.5026

     occupation numbers 
     1.0000   1.0000   1.0000   1.0000   0.0000   0.0000   0.0000   0.0000

          k = 0.0556 0.4811 0.0000 ( 11987 PWs)   bands (ev):

   -17.8481 -14.0563  -8.8634  -5.4932   0.4017   5.4258   6.4857   7.2190

     occupation numbers 
     1.0000   1.0000   1.0000   1.0000   0.0000   0.0000   0.0000   0.0000

          k = 0.0556 0.5132 0.0000 ( 11969 PWs)   bands (ev):

   -17.3432 -14.6936  -8.9540  -5.0731  -0.1534   5.3839   7.2334   7.9795

     occupation numbers 
     1.0000   1.0000   1.0000   1.0000   0.0000   0.0000   0.0000   0.0000

          k = 0.0556 0.5453 0.0000 ( 11971 PWs)   bands (ev):

   -16.8602 -15.2566  -9.0087  -4.7638  -0.5449   5.3570   8.0253   8.7780

     occupation numbers 
     1.0000   1.0000   1.0000   1.0000   0.0000   0.0000   0.0000   0.0000

          k = 0.0556 0.5774 0.0000 ( 11958 PWs)   bands (ev):

   -16.5922 -15.5515  -9.0270  -4.6462  -0.6901   5.3478   8.7881   8.9344

     occupation numbers 
     1.0000   1.0000   1.0000   1.0000   0.0000   0.0000   0.0000   0.0000

          k = 0.0833 0.1443 0.0000 ( 12059 PWs)   bands (ev):

   -21.3822  -9.3836  -7.0932  -6.4234   1.5181   2.1938   2.3281   3.3308

     occupation numbers 
     1.0000   1.0000   1.0000   1.0000   0.0000   0.0000   0.0000   0.0000

          k = 0.0833 0.1764 0.0000 ( 12068 PWs)   bands (ev):

   -21.2013  -9.1690  -7.5997  -6.7508   1.7661   2.4448   2.5813   3.5809

     occupation numbers 
     1.0000   1.0000   1.0000   1.0000   0.0000   0.0000   0.0000   0.0000

          k = 0.0833 0.2085 0.0000 ( 12058 PWs)   bands (ev):

   -20.9846  -8.9131  -8.1740  -7.0884   2.0637   2.7457   2.8851   3.8804

     occupation numbers 
     1.0000   1.0000   1.0000   1.0000   0.0000   0.0000   0.0000   0.0000

          k = 0.0833 0.2406 0.0000 ( 12058 PWs)   bands (ev):

   -20.7327  -8.8029  -8.6168  -7.4208   2.4105   3.0959   3.2395   4.2285

     occupation numbers 
     1.0000   1.0000   1.0000   1.0000   0.0000   0.0000   0.0000   0.0000

          k = 0.0833 0.2726 0.0000 ( 12066 PWs)   bands (ev):

   -20.4457  -9.4716  -8.2816  -7.7385   2.8065   3.4942   3.6445   4.6158

     occupation numbers 
     1.0000   1.0000   1.0000   1.0000   0.0000   0.0000   0.0000   0.0000

          k = 0.0833 0.3047 0.0000 ( 12048 PWs)   bands (ev):

   -20.1243 -10.1662  -8.0353  -7.9093   3.2513   3.9226   4.1001   4.3350

     occupation numbers 
     1.0000   1.0000   1.0000   1.0000   0.0000   0.0000   0.0000   0.0000

          k = 0.0833 0.3368 0.0000 ( 12038 PWs)   bands (ev):

   -19.7690 -10.8751  -8.3068  -7.5027   3.5601   3.7447   4.4661   4.6061

     occupation numbers 
     1.0000   1.0000   1.0000   1.0000   0.0000   0.0000   0.0000   0.0000

          k = 0.0833 0.3689 0.0000 ( 12025 PWs)   bands (ev):

   -19.3807 -11.5885  -8.5499  -7.0655   2.8233   4.2858   5.0078   5.1622

     occupation numbers 
     1.0000   1.0000   1.0000   1.0000   0.0000   0.0000   0.0000   0.0000

          k = 0.0833 0.4009 0.0000 ( 12013 PWs)   bands (ev):

   -18.9605 -12.2980  -8.7621  -6.6034   2.0851   4.8728   5.6036   5.7642

     occupation numbers 
     1.0000   1.0000   1.0000   1.0000   0.0000   0.0000   0.0000   0.0000

          k = 0.0833 0.4330 0.0000 ( 12002 PWs)   bands (ev):

   -18.5102 -12.9966  -8.9415  -6.1256   1.3661   5.4950   5.9514   6.2479

     occupation numbers 
     1.0000   1.0000   1.0000   1.0000   0.0000   0.0000   0.0000   0.0000

          k = 0.0833 0.4651 0.0000 ( 11984 PWs)   bands (ev):

   -18.0327 -13.6772  -9.0865  -5.6473   0.6880   5.8280   6.2345   6.9386

     occupation numbers 
     1.0000   1.0000   1.0000   1.0000   0.0000   0.0000   0.0000   0.0000

          k = 0.0833 0.4972 0.0000 ( 11973 PWs)   bands (ev):

   -17.5343 -14.3303  -9.1962  -5.1957   0.0826   5.7927   6.9444   7.6729

     occupation numbers 
     1.0000   1.0000   1.0000   1.0000   0.0000   0.0000   0.0000   0.0000

          k = 0.0833 0.5292 0.0000 ( 11960 PWs)   bands (ev):

   -17.0333 -14.9355  -9.2698  -4.8191  -0.3985   5.7586   7.7125   8.4450

     occupation numbers 
     1.0000   1.0000   1.0000   1.0000   0.0000   0.0000   0.0000   0.0000

          k = 0.0833 0.5613 0.0000 ( 11966 PWs)   bands (ev):

   -16.6127 -15.4086  -9.3067  -4.5936  -0.6766   5.7406   8.5188   9.2319

     occupation numbers 
     1.0000   1.0000   1.0000   1.0000   0.0000   0.0000   0.0000   0.0000

          k = 0.1111 0.1925 0.0000 ( 12061 PWs)   bands (ev):

   -21.0027  -8.9343  -8.0791  -7.1219   2.0390   2.7207   2.8598   3.8556

     occupation numbers 
     1.0000   1.0000   1.0000   1.0000   0.0000   0.0000   0.0000   0.0000

          k = 0.1111 0.2245 0.0000 ( 12067 PWs)   bands (ev):

   -20.7687  -8.6587  -8.6189  -7.4997   2.3612   3.0463   3.1889   4.1798

     occupation numbers 
     1.0000   1.0000   1.0000   1.0000   0.0000   0.0000   0.0000   0.0000

          k = 0.1111 0.2566 0.0000 ( 12074 PWs)   bands (ev):

   -20.4995  -9.2148  -8.3436  -7.8622   2.7326   3.4210   3.5687   4.5513

     occupation numbers 
     1.0000   1.0000   1.0000   1.0000   0.0000   0.0000   0.0000   0.0000

          k = 0.1111 0.2887 0.0000 ( 12064 PWs)   bands (ev):

   -20.1957  -9.8552  -8.1982  -7.9905   3.1531   3.8409   3.9990   4.5158

     occupation numbers 
     1.0000   1.0000   1.0000   1.0000   0.0000   0.0000   0.0000   0.0000

          k = 0.1111 0.3208 0.0000 ( 12054 PWs)   bands (ev):

   -19.8579 -10.5263  -8.5030  -7.6017   3.6223   3.7968   4.3365   4.4799

     occupation numbers 
     1.0000   1.0000   1.0000   1.0000   0.0000   0.0000   0.0000   0.0000

          k = 0.1111 0.3528 0.0000 ( 12028 PWs)   bands (ev):

   -19.4866 -11.2147  -8.7749  -7.1801   3.0868   4.1397   4.8521   5.0112

     occupation numbers 
     1.0000   1.0000   1.0000   1.0000   0.0000   0.0000   0.0000   0.0000

          k = 0.1111 0.3849 0.0000 ( 12004 PWs)   bands (ev):

   -19.0831 -11.9094  -9.0126  -6.7304   2.3655   4.7047   5.4226   5.5927

     occupation numbers 
     1.0000   1.0000   1.0000   1.0000   0.0000   0.0000   0.0000   0.0000

          k = 0.1111 0.4170 0.0000 ( 11987 PWs)   bands (ev):

   -18.6485 -12.6010  -9.2153  -6.2595   1.6523   5.3154   6.0411   6.2207

     occupation numbers 
     1.0000   1.0000   1.0000   1.0000   0.0000   0.0000   0.0000   0.0000

          k = 0.1111 0.4491 0.0000 ( 11985 PWs)   bands (ev):

   -18.1853 -13.2814  -9.3823  -5.7788   0.9650   5.9621   6.4274   6.7054

     occupation numbers 
     1.0000   1.0000   1.0000   1.0000   0.0000   0.0000   0.0000   0.0000

          k = 0.1111 0.4811 0.0000 ( 11975 PWs)   bands (ev):

   -17.6977 -13.9421  -9.5129  -5.3082   0.3285   6.3175   6.7172   7.4122

     occupation numbers 
     1.0000   1.0000   1.0000   1.0000   0.0000   0.0000   0.0000   0.0000

          k = 0.1111 0.5132 0.0000 ( 11973 PWs)   bands (ev):

   -17.1960 -14.5694  -9.6066  -4.8834  -0.2176   6.2889   7.4483   8.1547

     occupation numbers 
     1.0000   1.0000   1.0000   1.0000   0.0000   0.0000   0.0000   0.0000

          k = 0.1111 0.5453 0.0000 ( 11963 PWs)   bands (ev):

   -16.7169 -15.1247  -9.6629  -4.5677  -0.6072   6.2635   8.2329   8.9133

     occupation numbers 
     1.0000   1.0000   1.0000   1.0000   0.0000   0.0000   0.0000   0.0000

          k = 0.1111 0.5774 0.0000 ( 11978 PWs)   bands (ev):

   -16.4517 -15.4154  -9.6817  -4.4468  -0.7530   6.2545   8.9796   9.1395

     occupation numbers 
     1.0000   1.0000   1.0000   1.0000   0.0000   0.0000   0.0000   0.0000

          k = 0.1389 0.2406 0.0000 ( 12085 PWs)   bands (ev):

   -20.5175  -9.1101  -8.3643  -7.9235   2.7080   3.3965   3.5434   4.5285

     occupation numbers 
     1.0000   1.0000   1.0000   1.0000   0.0000   0.0000   0.0000   0.0000

          k = 0.1389 0.2726 0.0000 ( 12064 PWs)   bands (ev):

   -20.2315  -9.6541  -8.3280  -8.0312   3.1040   3.7955   3.9485   4.6209

     occupation numbers 
     1.0000   1.0000   1.0000   1.0000   0.0000   0.0000   0.0000   0.0000

          k = 0.1389 0.3047 0.0000 ( 12037 PWs)   bands (ev):

   -19.9112 -10.2489  -8.6941  -7.6613   3.5488   3.9560   4.2522   4.4042

     occupation numbers 
     1.0000   1.0000   1.0000   1.0000   0.0000   0.0000   0.0000   0.0000

          k = 0.1389 0.3368 0.0000 ( 12035 PWs)   bands (ev):

   -19.5574 -10.8830  -9.0158  -7.2569   3.2804   4.0420   4.7457   4.9103

     occupation numbers 
     1.0000   1.0000   1.0000   1.0000   0.0000   0.0000   0.0000   0.0000

          k = 0.1389 0.3689 0.0000 ( 12013 PWs)   bands (ev):

   -19.1708 -11.5417  -9.2935  -6.8219   2.5883   4.5833   5.2911   5.4669

     occupation numbers 
     1.0000   1.0000   1.0000   1.0000   0.0000   0.0000   0.0000   0.0000

          k = 0.1389 0.4009 0.0000 ( 11997 PWs)   bands (ev):

   -18.7528 -12.2114  -9.5291  -6.3615   1.8947   5.1717   5.8835   6.0737

     occupation numbers 
     1.0000   1.0000   1.0000   1.0000   0.0000   0.0000   0.0000   0.0000

          k = 0.1389 0.4330 0.0000 ( 11994 PWs)   bands (ev):

   -18.3050 -12.8805  -9.7242  -5.8843   1.2138   5.8055   6.5206   6.7284

     occupation numbers 
     1.0000   1.0000   1.0000   1.0000   0.0000   0.0000   0.0000   0.0000

          k = 0.1389 0.4651 0.0000 ( 11993 PWs)   bands (ev):

   -17.8307 -13.5390  -9.8798  -5.4046   0.5647   6.4773   7.0072   7.1985

     occupation numbers 
     1.0000   1.0000   1.0000   1.0000   0.0000   0.0000   0.0000   0.0000

          k = 0.1389 0.4972 0.0000 ( 11975 PWs)   bands (ev):

   -17.3362 -14.1755  -9.9963  -4.9483  -0.0225   6.9085   7.2490   7.9088

     occupation numbers 
     1.0000   1.0000   1.0000   1.0000   0.0000   0.0000   0.0000   0.0000

          k = 0.1389 0.5292 0.0000 ( 11973 PWs)   bands (ev):

   -16.8400 -14.7681 -10.0739  -4.5633  -0.4966   6.8909   7.9943   8.6289

     occupation numbers 
     1.0000   1.0000   1.0000   1.0000   0.0000   0.0000   0.0000   0.0000

          k = 0.1389 0.5613 0.0000 ( 11965 PWs)   bands (ev):

   -16.4244 -15.2323 -10.1127  -4.3295  -0.7755   6.8744   8.7871   9.2616

     occupation numbers 
     1.0000   1.0000   1.0000   1.0000   0.0000   0.0000   0.0000   0.0000

          k = 0.1667 0.2887 0.0000 ( 12047 PWs)   bands (ev):

   -19.9290 -10.1337  -8.7815  -7.6811   3.5242   4.0162   4.2192   4.3789

     occupation numbers 
     1.0000   1.0000   1.0000   1.0000   0.0000   0.0000   0.0000   0.0000

          k = 0.1667 0.3208 0.0000 ( 12039 PWs)   bands (ev):

   -19.5928 -10.6641  -9.1921  -7.2955   3.3840   3.9931   4.6911   4.8598

     occupation numbers 
     1.0000   1.0000   1.0000   1.0000   0.0000   0.0000   0.0000   0.0000

          k = 0.1667 0.3528 0.0000 ( 12027 PWs)   bands (ev):

   -19.2236 -11.2439  -9.5443  -6.8771   2.7332   4.5102   5.2108   5.3913

     occupation numbers 
     1.0000   1.0000   1.0000   1.0000   0.0000   0.0000   0.0000   0.0000

          k = 0.1667 0.3849 0.0000 ( 12027 PWs)   bands (ev):

   -18.8225 -11.8601  -9.8375  -6.4302   2.0727   5.0747   5.7766   5.9731

     occupation numbers 
     1.0000   1.0000   1.0000   1.0000   0.0000   0.0000   0.0000   0.0000

          k = 0.1667 0.4170 0.0000 ( 12001 PWs)   bands (ev):

   -18.3910 -12.4962 -10.0769  -5.9613   1.4134   5.6859   6.3859   6.6051

     occupation numbers 
     1.0000   1.0000   1.0000   1.0000   0.0000   0.0000   0.0000   0.0000

          k = 0.1667 0.4491 0.0000 ( 11996 PWs)   bands (ev):

   -17.9315 -13.1369 -10.2677  -5.4805   0.7700   6.3417   7.0339   7.2859

     occupation numbers 
     1.0000   1.0000   1.0000   1.0000   0.0000   0.0000   0.0000   0.0000

          k = 0.1667 0.4811 0.0000 ( 11982 PWs)   bands (ev):

   -17.4484 -13.7689 -10.4135  -5.0062   0.1645   7.0362   7.6685   7.7095

     occupation numbers 
     1.0000   1.0000   1.0000   1.0000   0.0000   0.0000   0.0000   0.0000

          k = 0.1667 0.5132 0.0000 ( 11965 PWs)   bands (ev):

   -16.9522 -14.3753 -10.5166  -4.5725  -0.3654   7.5733   7.8295   8.3844

     occupation numbers 
     1.0000   1.0000   1.0000   1.0000   0.0000   0.0000   0.0000   0.0000

          k = 0.1667 0.5453 0.0000 ( 11973 PWs)   bands (ev):

   -16.4792 -14.9158 -10.5780  -4.2438  -0.7530   7.5729   8.5766   8.9704

     occupation numbers 
     1.0000   1.0000   1.0000   1.0000   0.0000   0.0000   0.0000   0.0000

          k = 0.1667 0.5774 0.0000 ( 11962 PWs)   bands (ev):

   -16.2179 -15.1999 -10.5984  -4.1155  -0.9011   7.5653   9.2322   9.2888

     occupation numbers 
     1.0000   1.0000   1.0000   1.0000   0.0000   0.0000   0.0000   0.0000

          k = 0.1944 0.3368 0.0000 ( 12029 PWs)   bands (ev):

   -19.2412 -11.1179  -9.6554  -6.8956   2.7836   4.4857   5.1837   5.3660

     occupation numbers 
     1.0000   1.0000   1.0000   1.0000   0.0000   0.0000   0.0000   0.0000

          k = 0.1944 0.3689 0.0000 ( 12019 PWs)   bands (ev):

   -18.8574 -11.6236 -10.0548  -6.4648   2.1675   5.0261   5.7223   5.9227

     occupation numbers 
     1.0000   1.0000   1.0000   1.0000   0.0000   0.0000   0.0000   0.0000

          k = 0.1944 0.4009 0.0000 ( 12013 PWs)   bands (ev):

   -18.4427 -12.1793 -10.3789  -6.0081   1.5437   5.6132   6.3036   6.5297

     occupation numbers 
     1.0000   1.0000   1.0000   1.0000   0.0000   0.0000   0.0000   0.0000

          k = 0.1944 0.4330 0.0000 ( 12013 PWs)   bands (ev):

   -17.9991 -12.7690 -10.6324  -5.5327   0.9229   6.2459   6.9211   7.1868

     occupation numbers 
     1.0000   1.0000   1.0000   1.0000   0.0000   0.0000   0.0000   0.0000

          k = 0.1944 0.4651 0.0000 ( 11994 PWs)   bands (ev):

   -17.5299 -13.3731 -10.8247  -5.0514   0.3205   6.9219   7.5607   7.8930

     occupation numbers 
     1.0000   1.0000   1.0000   1.0000   0.0000   0.0000   0.0000   0.0000

          k = 0.1944 0.4972 0.0000 ( 11967 PWs)   bands (ev):

   -17.0416 -13.9719 -10.9636  -4.5874  -0.2373   7.6350   8.1857   8.3844

     occupation numbers 
     1.0000   1.0000   1.0000   1.0000   0.0000   0.0000   0.0000   0.0000

          k = 0.1944 0.5292 0.0000 ( 11944 PWs)   bands (ev):

   -16.5524 -14.5389 -11.0541  -4.1867  -0.7020   8.2735   8.4632   8.7032

     occupation numbers 
     1.0000   1.0000   1.0000   1.0000   0.0000   0.0000   0.0000   0.0000

          k = 0.1944 0.5613 0.0000 ( 11966 PWs)   bands (ev):

   -16.1430 -14.9884 -11.0987  -3.9359  -0.9854   8.3061   8.9786   9.1814

     occupation numbers 
     1.0000   1.0000   1.0000   1.0000   0.0000   0.0000   0.0000   0.0000

          k = 0.2222 0.3849 0.0000 ( 12029 PWs)   bands (ev):

   -18.4600 -12.0429 -10.5111  -6.0238   1.5891   5.5889   6.2759   6.5045

     occupation numbers 
     1.0000   1.0000   1.0000   1.0000   0.0000   0.0000   0.0000   0.0000

          k = 0.2222 0.4170 0.0000 ( 12011 PWs)   bands (ev):

   -18.0331 -12.5169 -10.8848  -5.5593   1.0048   6.1976   6.8636   7.1365

     occupation numbers 
     1.0000   1.0000   1.0000   1.0000   0.0000   0.0000   0.0000   0.0000

          k = 0.2222 0.4491 0.0000 ( 12001 PWs)   bands (ev):

   -17.5793 -13.0414 -11.1687  -5.0801   0.4244   6.8502   7.4677   7.8185

     occupation numbers 
     1.0000   1.0000   1.0000   1.0000   0.0000   0.0000   0.0000   0.0000

          k = 0.2222 0.4811 0.0000 ( 11976 PWs)   bands (ev):

   -17.1031 -13.5956 -11.3727  -4.6012  -0.1356   7.5431   8.0429   8.5496

     occupation numbers 
     1.0000   1.0000   1.0000   1.0000   0.0000   0.0000   0.0000   0.0000

          k = 0.2222 0.5132 0.0000 ( 11961 PWs)   bands (ev):

   -16.6149 -14.1515 -11.5095  -4.1526  -0.6435   8.2686   8.4875   9.1205

     occupation numbers 
     1.0000   1.0000   1.0000   1.0000   0.0000   0.0000   0.0000   0.0000

          k = 0.2222 0.5453 0.0000 ( 11959 PWs)   bands (ev):

   -16.1497 -14.6617 -11.5884  -3.7984  -1.0339   8.7145   8.9613   9.1518

     occupation numbers 
     1.0000   1.0000   1.0000   1.0000   0.0000   0.0000   0.0000   0.0000

          k = 0.2222 0.5774 0.0000 ( 11968 PWs)   bands (ev):

   -15.8910 -14.9362 -11.6142  -3.6541  -1.1905   8.7740   9.0525   9.6935

     occupation numbers 
     1.0000   1.0000   1.0000   1.0000   0.0000   0.0000   0.0000   0.0000

          k = 0.2500 0.4330 0.0000 ( 11995 PWs)   bands (ev):

   -17.5958 -12.8963 -11.3184  -5.0899   0.4609   6.8261   7.4360   7.7934

     occupation numbers 
     1.0000   1.0000   1.0000   1.0000   0.0000   0.0000   0.0000   0.0000

          k = 0.2500 0.4651 0.0000 ( 11973 PWs)   bands (ev):

   -17.1343 -13.3332 -11.6525  -4.6093  -0.0792   7.4955   7.9673   8.5000

     occupation numbers 
     1.0000   1.0000   1.0000   1.0000   0.0000   0.0000   0.0000   0.0000

          k = 0.2500 0.4972 0.0000 ( 11968 PWs)   bands (ev):

   -16.6553 -13.8181 -11.8837  -4.1352  -0.5981   8.2001   8.3463   9.2550

     occupation numbers 
     1.0000   1.0000   1.0000   1.0000   0.0000   0.0000   0.0000   0.0000

          k = 0.2500 0.5292 0.0000 ( 11960 PWs)   bands (ev):

   -16.1759 -14.3155 -12.0259  -3.7068  -1.0566   8.5118   8.9262   9.8264

     occupation numbers 
     1.0000   1.0000   1.0000   1.0000   0.0000   0.0000   0.0000   0.0000

          k = 0.2500 0.5613 0.0000 ( 11966 PWs)   bands (ev):

   -15.7708 -14.7341 -12.0933  -3.4180  -1.3605   8.5548   9.6114   9.8281

     occupation numbers 
     1.0000   1.0000   1.0000   1.0000   0.0000   0.0000   0.0000   0.0000

          k = 0.2778 0.4811 0.0000 ( 11969 PWs)   bands (ev):

   -16.6692 -13.6702 -12.0453  -4.1300  -0.5811   8.1765   8.2970   9.2305

     occupation numbers 
     1.0000   1.0000   1.0000   1.0000   0.0000   0.0000   0.0000   0.0000

          k = 0.2778 0.5132 0.0000 ( 11962 PWs)   bands (ev):

   -16.1936 -14.0640 -12.3198  -3.6613  -1.0643   8.4031   8.8818  10.0076

     occupation numbers 
     1.0000   1.0000   1.0000   1.0000   0.0000   0.0000   0.0000   0.0000

          k = 0.2778 0.5453 0.0000 ( 11959 PWs)   bands (ev):

   -15.7373 -14.4819 -12.4753  -3.2549  -1.4788   8.4025   9.5828  10.3854

     occupation numbers 
     1.0000   1.0000   1.0000   1.0000   0.0000   0.0000   0.0000   0.0000

          k = 0.2778 0.5774 0.0000 ( 11942 PWs)   bands (ev):

   -15.4715 -14.7373 -12.5249  -3.0653  -1.6710   8.3930  10.1404  10.2165

     occupation numbers 
     1.0000   1.0000   1.0000   1.0000   0.0000   0.0000   0.0000   0.0000

          k = 0.3056 0.5292 0.0000 ( 11958 PWs)   bands (ev):

   -15.7322 -14.3593 -12.6355  -3.1955  -1.5224   8.3487   9.5628  10.6495

     occupation numbers 
     1.0000   1.0000   1.0000   1.0000   0.0000   0.0000   0.0000   0.0000

          k = 0.3056 0.5613 0.0000 ( 11937 PWs)   bands (ev):

   -15.3212 -14.6838 -12.7976  -2.8021  -1.9111   8.2999  10.1699  10.5647

     occupation numbers 
     1.0000   1.0000   1.0000   1.0000  -0.0000   0.0000   0.0000   0.0000

          k = 0.3333 0.5774 0.0000 ( 11898 PWs)   bands (ev):

   -14.9605 -14.9605 -12.9178  -2.3530  -2.3530   8.2609  10.5124  10.5124

     occupation numbers 
     1.0000   1.0000   1.0000   1.0000   0.0000   0.0000   0.0000   0.0000

     the Fermi energy is    -2.3529 ev
     (compare with:    -2.3530 eV, computed in scf)

     Writing output data file ./tmp/graphene1.save/

     init_run     :      0.75s CPU      0.84s WALL (       1 calls)
     electrons    :    455.53s CPU    470.58s WALL (       1 calls)

     Called by init_run:
     wfcinit      :      0.00s CPU      0.00s WALL (       1 calls)
     wfcinit:atom :      0.16s CPU      0.19s WALL (     127 calls)
     wfcinit:wfcr :      9.92s CPU     10.14s WALL (     127 calls)
     potinit      :      0.18s CPU      0.22s WALL (       1 calls)
     hinit0       :      0.35s CPU      0.37s WALL (       1 calls)

     Called by electrons:
     c_bands      :    455.48s CPU    470.53s WALL (       1 calls)
     v_of_rho     :      0.12s CPU      0.14s WALL (       1 calls)
     v_h          :      0.01s CPU      0.01s WALL (       1 calls)
     v_xc         :      0.11s CPU      0.13s WALL (       1 calls)
     newd         :      0.04s CPU      0.07s WALL (       1 calls)
     PAW_pot      :      0.05s CPU      0.06s WALL (       1 calls)

     Called by c_bands:
     init_us_2    :      0.18s CPU      0.22s WALL (     127 calls)
     cegterg      :    444.19s CPU    453.59s WALL (     476 calls)

     Called by sum_band:

     Called by *egterg:
     cdiaghg      :      1.33s CPU      1.36s WALL (    8408 calls)
     cegterg:over :     21.90s CPU     22.14s WALL (    8281 calls)
     cegterg:upda :     13.62s CPU     13.77s WALL (    8281 calls)
     cegterg:last :     37.64s CPU     37.89s WALL (    4589 calls)
     h_psi        :    356.63s CPU    365.33s WALL (    8884 calls)
     s_psi        :     13.39s CPU     13.58s WALL (    8884 calls)
     g_psi        :      2.32s CPU      2.35s WALL (    8281 calls)

     Called by h_psi:
     h_psi:calbec :     14.91s CPU     15.36s WALL (    8884 calls)
     vloc_psi     :    327.01s CPU    335.02s WALL (    8884 calls)
     add_vuspsi   :     13.43s CPU     13.69s WALL (    8884 calls)

     General routines
     calbec       :     14.85s CPU     15.32s WALL (    8884 calls)
     fft          :      0.08s CPU      0.09s WALL (      12 calls)
     fftw         :    271.01s CPU    277.61s WALL (   75912 calls)
     davcio       :      0.11s CPU      5.48s WALL (     254 calls)

     Parallel routines
     fft_scatt_xy :     60.11s CPU     61.67s WALL (   75924 calls)
     fft_scatt_yz :     35.08s CPU     36.39s WALL (   75924 calls)

     PAW routines
     PAW_pot      :      0.05s CPU      0.06s WALL (       1 calls)

     PWSCF        :   7m36.84s CPU   7m59.68s WALL


   This run was terminated on:  12:38:41  25Aug2023            

=------------------------------------------------------------------------------=
   JOB DONE.
=------------------------------------------------------------------------------=
