
     Program PWSCF v.6.7MaX starts on 28Aug2023 at 20: 3: 5 

     This program is part of the open-source Quantum ESPRESSO suite
     for quantum simulation of materials; please cite
         "P. Giannozzi et al., J. Phys.:Condens. Matter 21 395502 (2009);
         "P. Giannozzi et al., J. Phys.:Condens. Matter 29 465901 (2017);
          URL http://www.quantum-espresso.org", 
     in publications or presentations arising from this work. More details at
     http://www.quantum-espresso.org/quote

     Parallel version (MPI), running on     2 processors

     MPI processes distributed on     1 nodes
     R & G space division:  proc/nbgrp/npool/nimage =       2
     Waiting for input...
     Reading input from standard input

     Current dimensions of program PWSCF are:
     Max number of different atomic species (ntypx) = 10
     Max number of k-points (npk) =  40000
     Max angular momentum in pseudopotentials (lmaxx) =  3

     Atomic positions and unit cell read from directory:
     ./tmp/graphene1.save/
     Atomic positions from file used, from input discarded

     file C.pbe-n-kjpaw_psl.1.0.0.UPF: wavefunction(s)  2S 2P renormalized

     Subspace diagonalization in iterative solution of the eigenvalue problem:
     a serial algorithm will be used


     Parallelization info
     --------------------
     sticks:   dense  smooth     PW     G-vecs:    dense   smooth      PW
     Min         330     330     99                52992    52992    8541
     Max         331     331    100                52993    52993    8552
     Sum         661     661    199               105985   105985   17093



     bravais-lattice index     =           12
     lattice parameter (alat)  =       4.8944  a.u.
     unit-cell volume          =     784.0735 (a.u.)^3
     number of atoms/cell      =            2
     number of atomic types    =            1
     number of electrons       =         8.00
     number of Kohn-Sham states=            8
     kinetic-energy cutoff     =     100.0000  Ry
     charge density cutoff     =     400.0000  Ry
     Exchange-correlation= SLA  PW   PBX  PBC
                           (   1   4   3   4   0   0   0)

     celldm(1)=   4.894391  celldm(2)=   1.000000  celldm(3)=   7.722008
     celldm(4)=  -0.500000  celldm(5)=   0.000000  celldm(6)=   0.000000

     crystal axes: (cart. coord. in units of alat)
               a(1) = (   1.000000   0.000000   0.000000 )  
               a(2) = (  -0.500000   0.866025   0.000000 )  
               a(3) = (   0.000000   0.000000   7.722008 )  

     reciprocal axes: (cart. coord. in units 2 pi/alat)
               b(1) = (  1.000000  0.577350 -0.000000 )  
               b(2) = (  0.000000  1.154701  0.000000 )  
               b(3) = (  0.000000 -0.000000  0.129500 )  


     PseudoPot. # 1 for C  read from file:
     ./Pseudo/C.pbe-n-kjpaw_psl.1.0.0.UPF
     MD5 check sum: ecdf03482cb4269f2fcfa842d572f30f
     Pseudo is Projector augmented-wave + core cor, Zval =  4.0
     Generated using &quot;atomic&quot; code by A. Dal Corso  v.6.3
     Shape of augmentation charge: PSQ
     Using radial grid of 1073 points,  4 beta functions with: 
                l(1) =   0
                l(2) =   0
                l(3) =   1
                l(4) =   1
     Q(r) pseudized with 0 coefficients 


     atomic species   valence    mass     pseudopotential
        C              4.00    12.01070     C ( 1.00)

     24 Sym. Ops., with inversion, found (18 have fractional translation)


                                    s                        frac. trans.

      isym =  1     identity                                     

 cryst.   s( 1) = (     1          0          0      )
                  (     0          1          0      )
                  (     0          0          1      )

 cart.    s( 1) = (  1.0000000  0.0000000  0.0000000 )
                  (  0.0000000  1.0000000  0.0000000 )
                  (  0.0000000  0.0000000  1.0000000 )


      isym =  2     180 deg rotation - cart. axis [0,0,1]        

 cryst.   s( 2) = (    -1          0          0      )    f =( -0.3333333 )
                  (     0         -1          0      )       (  0.3333333 )
                  (     0          0          1      )       (  0.0000000 )

 cart.    s( 2) = ( -1.0000000  0.0000000  0.0000000 )    f =( -0.5000000 )
                  (  0.0000000 -1.0000000  0.0000000 )       (  0.2886751 )
                  (  0.0000000  0.0000000  1.0000000 )       (  0.0000000 )


      isym =  3     180 deg rotation - cart. axis [0,1,0]        

 cryst.   s( 3) = (    -1          0          0      )    f =(  0.0000000 )
                  (     1          1          0      )       (  0.0000000 )
                  (     0          0         -1      )       (  0.5000000 )

 cart.    s( 3) = ( -1.0000000  0.0000000  0.0000000 )    f =(  0.0000000 )
                  (  0.0000000  1.0000000  0.0000000 )       (  0.0000000 )
                  (  0.0000000  0.0000000 -1.0000000 )       (  3.8610039 )


      isym =  4     180 deg rotation - cart. axis [1,0,0]        

 cryst.   s( 4) = (     1          0          0      )    f =( -0.3333333 )
                  (    -1         -1          0      )       (  0.3333333 )
                  (     0          0         -1      )       (  0.5000000 )

 cart.    s( 4) = (  1.0000000 -0.0000000  0.0000000 )    f =( -0.5000000 )
                  (  0.0000000 -1.0000000  0.0000000 )       (  0.2886751 )
                  (  0.0000000  0.0000000 -1.0000000 )       (  3.8610039 )


      isym =  5      60 deg rotation - cryst. axis [0,0,1]       

 cryst.   s( 5) = (     1          1          0      )    f =( -0.3333333 )
                  (    -1          0          0      )       (  0.3333333 )
                  (     0          0          1      )       (  0.0000000 )

 cart.    s( 5) = (  0.5000000 -0.8660254  0.0000000 )    f =( -0.5000000 )
                  (  0.8660254  0.5000000  0.0000000 )       (  0.2886751 )
                  (  0.0000000  0.0000000  1.0000000 )       (  0.0000000 )


      isym =  6      60 deg rotation - cryst. axis [0,0,-1]      

 cryst.   s( 6) = (     0         -1          0      )    f =( -0.3333333 )
                  (     1          1          0      )       (  0.3333333 )
                  (     0          0          1      )       (  0.0000000 )

 cart.    s( 6) = (  0.5000000  0.8660254  0.0000000 )    f =( -0.5000000 )
                  ( -0.8660254  0.5000000  0.0000000 )       (  0.2886751 )
                  (  0.0000000  0.0000000  1.0000000 )       (  0.0000000 )


      isym =  7     120 deg rotation - cryst. axis [0,0,1]       

 cryst.   s( 7) = (     0          1          0      )
                  (    -1         -1          0      )
                  (     0          0          1      )

 cart.    s( 7) = ( -0.5000000 -0.8660254  0.0000000 )
                  (  0.8660254 -0.5000000  0.0000000 )
                  (  0.0000000  0.0000000  1.0000000 )


      isym =  8     120 deg rotation - cryst. axis [0,0,-1]      

 cryst.   s( 8) = (    -1         -1          0      )
                  (     1          0          0      )
                  (     0          0          1      )

 cart.    s( 8) = ( -0.5000000  0.8660254  0.0000000 )
                  ( -0.8660254 -0.5000000  0.0000000 )
                  (  0.0000000  0.0000000  1.0000000 )


      isym =  9     180 deg rotation - cryst. axis [1,-1,0]      

 cryst.   s( 9) = (     0         -1          0      )    f =(  0.0000000 )
                  (    -1          0          0      )       (  0.0000000 )
                  (     0          0         -1      )       (  0.5000000 )

 cart.    s( 9) = (  0.5000000 -0.8660254  0.0000000 )    f =(  0.0000000 )
                  ( -0.8660254 -0.5000000  0.0000000 )       (  0.0000000 )
                  (  0.0000000  0.0000000 -1.0000000 )       (  3.8610039 )


      isym = 10     180 deg rotation - cryst. axis [2,1,0]       

 cryst.   s(10) = (     1          1          0      )    f =(  0.0000000 )
                  (     0         -1          0      )       (  0.0000000 )
                  (     0          0         -1      )       (  0.5000000 )

 cart.    s(10) = (  0.5000000  0.8660254  0.0000000 )    f =(  0.0000000 )
                  (  0.8660254 -0.5000000  0.0000000 )       (  0.0000000 )
                  (  0.0000000  0.0000000 -1.0000000 )       (  3.8610039 )


      isym = 11     180 deg rotation - cryst. axis [0,1,0]       

 cryst.   s(11) = (    -1         -1          0      )    f =( -0.3333333 )
                  (     0          1          0      )       (  0.3333333 )
                  (     0          0         -1      )       (  0.5000000 )

 cart.    s(11) = ( -0.5000000 -0.8660254  0.0000000 )    f =( -0.5000000 )
                  ( -0.8660254  0.5000000  0.0000000 )       (  0.2886751 )
                  (  0.0000000  0.0000000 -1.0000000 )       (  3.8610039 )


      isym = 12     180 deg rotation - cryst. axis [1,1,0]       

 cryst.   s(12) = (     0          1          0      )    f =( -0.3333333 )
                  (     1          0          0      )       (  0.3333333 )
                  (     0          0         -1      )       (  0.5000000 )

 cart.    s(12) = ( -0.5000000  0.8660254  0.0000000 )    f =( -0.5000000 )
                  (  0.8660254  0.5000000  0.0000000 )       (  0.2886751 )
                  (  0.0000000  0.0000000 -1.0000000 )       (  3.8610039 )


      isym = 13     inversion                                    

 cryst.   s(13) = (    -1          0          0      )    f =( -0.3333333 )
                  (     0         -1          0      )       (  0.3333333 )
                  (     0          0         -1      )       (  0.5000000 )

 cart.    s(13) = ( -1.0000000  0.0000000  0.0000000 )    f =( -0.5000000 )
                  (  0.0000000 -1.0000000  0.0000000 )       (  0.2886751 )
                  (  0.0000000  0.0000000 -1.0000000 )       (  3.8610039 )


      isym = 14     inv. 180 deg rotation - cart. axis [0,0,1]   

 cryst.   s(14) = (     1          0          0      )    f =(  0.0000000 )
                  (     0          1          0      )       (  0.0000000 )
                  (     0          0         -1      )       (  0.5000000 )

 cart.    s(14) = (  1.0000000  0.0000000  0.0000000 )    f =(  0.0000000 )
                  (  0.0000000  1.0000000  0.0000000 )       (  0.0000000 )
                  (  0.0000000  0.0000000 -1.0000000 )       (  3.8610039 )


      isym = 15     inv. 180 deg rotation - cart. axis [0,1,0]   

 cryst.   s(15) = (     1          0          0      )    f =( -0.3333333 )
                  (    -1         -1          0      )       (  0.3333333 )
                  (     0          0          1      )       (  0.0000000 )

 cart.    s(15) = (  1.0000000 -0.0000000  0.0000000 )    f =( -0.5000000 )
                  (  0.0000000 -1.0000000  0.0000000 )       (  0.2886751 )
                  (  0.0000000  0.0000000  1.0000000 )       (  0.0000000 )


      isym = 16     inv. 180 deg rotation - cart. axis [1,0,0]   

 cryst.   s(16) = (    -1          0          0      )
                  (     1          1          0      )
                  (     0          0          1      )

 cart.    s(16) = ( -1.0000000  0.0000000  0.0000000 )
                  (  0.0000000  1.0000000  0.0000000 )
                  (  0.0000000  0.0000000  1.0000000 )


      isym = 17     inv.  60 deg rotation - cryst. axis [0,0,1]  

 cryst.   s(17) = (    -1         -1          0      )    f =(  0.0000000 )
                  (     1          0          0      )       (  0.0000000 )
                  (     0          0         -1      )       (  0.5000000 )

 cart.    s(17) = ( -0.5000000  0.8660254  0.0000000 )    f =(  0.0000000 )
                  ( -0.8660254 -0.5000000  0.0000000 )       (  0.0000000 )
                  (  0.0000000  0.0000000 -1.0000000 )       (  3.8610039 )


      isym = 18     inv.  60 deg rotation - cryst. axis [0,0,-1] 

 cryst.   s(18) = (     0          1          0      )    f =(  0.0000000 )
                  (    -1         -1          0      )       (  0.0000000 )
                  (     0          0         -1      )       (  0.5000000 )

 cart.    s(18) = ( -0.5000000 -0.8660254  0.0000000 )    f =(  0.0000000 )
                  (  0.8660254 -0.5000000  0.0000000 )       (  0.0000000 )
                  (  0.0000000  0.0000000 -1.0000000 )       (  3.8610039 )


      isym = 19     inv. 120 deg rotation - cryst. axis [0,0,1]  

 cryst.   s(19) = (     0         -1          0      )    f =( -0.3333333 )
                  (     1          1          0      )       (  0.3333333 )
                  (     0          0         -1      )       (  0.5000000 )

 cart.    s(19) = (  0.5000000  0.8660254  0.0000000 )    f =( -0.5000000 )
                  ( -0.8660254  0.5000000  0.0000000 )       (  0.2886751 )
                  (  0.0000000  0.0000000 -1.0000000 )       (  3.8610039 )


      isym = 20     inv. 120 deg rotation - cryst. axis [0,0,-1] 

 cryst.   s(20) = (     1          1          0      )    f =( -0.3333333 )
                  (    -1          0          0      )       (  0.3333333 )
                  (     0          0         -1      )       (  0.5000000 )

 cart.    s(20) = (  0.5000000 -0.8660254  0.0000000 )    f =( -0.5000000 )
                  (  0.8660254  0.5000000  0.0000000 )       (  0.2886751 )
                  (  0.0000000  0.0000000 -1.0000000 )       (  3.8610039 )


      isym = 21     inv. 180 deg rotation - cryst. axis [1,-1,0] 

 cryst.   s(21) = (     0          1          0      )    f =( -0.3333333 )
                  (     1          0          0      )       (  0.3333333 )
                  (     0          0          1      )       (  0.0000000 )

 cart.    s(21) = ( -0.5000000  0.8660254  0.0000000 )    f =( -0.5000000 )
                  (  0.8660254  0.5000000  0.0000000 )       (  0.2886751 )
                  (  0.0000000  0.0000000  1.0000000 )       (  0.0000000 )


      isym = 22     inv. 180 deg rotation - cryst. axis [2,1,0]  

 cryst.   s(22) = (    -1         -1          0      )    f =( -0.3333333 )
                  (     0          1          0      )       (  0.3333333 )
                  (     0          0          1      )       (  0.0000000 )

 cart.    s(22) = ( -0.5000000 -0.8660254  0.0000000 )    f =( -0.5000000 )
                  ( -0.8660254  0.5000000  0.0000000 )       (  0.2886751 )
                  (  0.0000000  0.0000000  1.0000000 )       (  0.0000000 )


      isym = 23     inv. 180 deg rotation - cryst. axis [0,1,0]  

 cryst.   s(23) = (     1          1          0      )
                  (     0         -1          0      )
                  (     0          0          1      )

 cart.    s(23) = (  0.5000000  0.8660254  0.0000000 )
                  (  0.8660254 -0.5000000  0.0000000 )
                  (  0.0000000  0.0000000  1.0000000 )


      isym = 24     inv. 180 deg rotation - cryst. axis [1,1,0]  

 cryst.   s(24) = (     0         -1          0      )
                  (    -1          0          0      )
                  (     0          0          1      )

 cart.    s(24) = (  0.5000000 -0.8660254  0.0000000 )
                  ( -0.8660254 -0.5000000  0.0000000 )
                  (  0.0000000  0.0000000  1.0000000 )


     point group D_6h(6/mmm)
     there are 12 classes
     the character table:

       E     2C6   2C3   C2    3C2'  3C2'' i     2S3   2S6   s_h   3s_d  3s_v 
A_1g   1.00  1.00  1.00  1.00  1.00  1.00  1.00  1.00  1.00  1.00  1.00  1.00
A_2g   1.00  1.00  1.00  1.00 -1.00 -1.00  1.00  1.00  1.00  1.00 -1.00 -1.00
B_1g   1.00 -1.00  1.00 -1.00  1.00 -1.00  1.00 -1.00  1.00 -1.00  1.00 -1.00
B_2g   1.00 -1.00  1.00 -1.00 -1.00  1.00  1.00 -1.00  1.00 -1.00 -1.00  1.00
E_1g   2.00  1.00 -1.00 -2.00  0.00  0.00  2.00  1.00 -1.00 -2.00  0.00  0.00
E_2g   2.00 -1.00 -1.00  2.00  0.00  0.00  2.00 -1.00 -1.00  2.00  0.00  0.00
A_1u   1.00  1.00  1.00  1.00  1.00  1.00 -1.00 -1.00 -1.00 -1.00 -1.00 -1.00
A_2u   1.00  1.00  1.00  1.00 -1.00 -1.00 -1.00 -1.00 -1.00 -1.00  1.00  1.00
B_1u   1.00 -1.00  1.00 -1.00  1.00 -1.00 -1.00  1.00 -1.00  1.00 -1.00  1.00
B_2u   1.00 -1.00  1.00 -1.00 -1.00  1.00 -1.00  1.00 -1.00  1.00  1.00 -1.00
E_1u   2.00  1.00 -1.00 -2.00  0.00  0.00 -2.00 -1.00  1.00  2.00  0.00  0.00
E_2u   2.00 -1.00 -1.00  2.00  0.00  0.00 -2.00  1.00  1.00 -2.00  0.00  0.00

     the symmetry operations in each class and the name of the first element:

     E        1
          identity                                               
     2C6      5    6
           60 deg rotation - cryst. axis [0,0,1]                 
     2C3      7    8
          120 deg rotation - cryst. axis [0,0,1]                 
     C2       2
          180 deg rotation - cart. axis [0,0,1]                  
     3C2'     4   12   11
          180 deg rotation - cart. axis [1,0,0]                  
     3C2''    3    9   10
          180 deg rotation - cart. axis [0,1,0]                  
     i       13
          inversion                                              
     2S3     17   18
          inv.  60 deg rotation - cryst. axis [0,0,1]            
     2S6     19   20
          inv. 120 deg rotation - cryst. axis [0,0,1]            
     s_h     14
          inv. 180 deg rotation - cart. axis [0,0,1]             
     3s_d    16   24   23
          inv. 180 deg rotation - cart. axis [1,0,0]             
     3s_v    15   21   22
          inv. 180 deg rotation - cart. axis [0,1,0]             

   Cartesian axes

     site n.     atom                  positions (alat units)
         1           C   tau(   1) = (   0.0000000   0.0000000   1.9305019  )
         2           C   tau(   2) = (  -0.0000000   0.5773503   1.9305019  )

   Crystallographic axes

     site n.     atom                  positions (cryst. coord.)
         1           C   tau(   1) = (  0.0000000  0.0000000  0.2500000  )
         2           C   tau(   2) = (  0.3333333  0.6666667  0.2500000  )

     number of k points=   127 (tetrahedron method)
                       cart. coord. in units 2pi/alat
        k(    1) = (   0.0000000   0.0000000   0.0000000), wk =   0.0015432
        k(    2) = (   0.0000000   0.0320750   0.0000000), wk =   0.0092593
        k(    3) = (   0.0000000   0.0641500   0.0000000), wk =   0.0092593
        k(    4) = (   0.0000000   0.0962250   0.0000000), wk =   0.0092593
        k(    5) = (   0.0000000   0.1283001   0.0000000), wk =   0.0092593
        k(    6) = (   0.0000000   0.1603751   0.0000000), wk =   0.0092593
        k(    7) = (   0.0000000   0.1924501   0.0000000), wk =   0.0092593
        k(    8) = (   0.0000000   0.2245251   0.0000000), wk =   0.0092593
        k(    9) = (   0.0000000   0.2566001   0.0000000), wk =   0.0092593
        k(   10) = (   0.0000000   0.2886751   0.0000000), wk =   0.0092593
        k(   11) = (   0.0000000   0.3207501   0.0000000), wk =   0.0092593
        k(   12) = (   0.0000000   0.3528252   0.0000000), wk =   0.0092593
        k(   13) = (   0.0000000   0.3849002   0.0000000), wk =   0.0092593
        k(   14) = (   0.0000000   0.4169752   0.0000000), wk =   0.0092593
        k(   15) = (   0.0000000   0.4490502   0.0000000), wk =   0.0092593
        k(   16) = (   0.0000000   0.4811252   0.0000000), wk =   0.0092593
        k(   17) = (   0.0000000   0.5132002   0.0000000), wk =   0.0092593
        k(   18) = (   0.0000000   0.5452753   0.0000000), wk =   0.0092593
        k(   19) = (   0.0000000  -0.5773503   0.0000000), wk =   0.0046296
        k(   20) = (   0.0277778   0.0481125   0.0000000), wk =   0.0092593
        k(   21) = (   0.0277778   0.0801875   0.0000000), wk =   0.0185185
        k(   22) = (   0.0277778   0.1122626   0.0000000), wk =   0.0185185
        k(   23) = (   0.0277778   0.1443376   0.0000000), wk =   0.0185185
        k(   24) = (   0.0277778   0.1764126   0.0000000), wk =   0.0185185
        k(   25) = (   0.0277778   0.2084876   0.0000000), wk =   0.0185185
        k(   26) = (   0.0277778   0.2405626   0.0000000), wk =   0.0185185
        k(   27) = (   0.0277778   0.2726376   0.0000000), wk =   0.0185185
        k(   28) = (   0.0277778   0.3047126   0.0000000), wk =   0.0185185
        k(   29) = (   0.0277778   0.3367877   0.0000000), wk =   0.0185185
        k(   30) = (   0.0277778   0.3688627   0.0000000), wk =   0.0185185
        k(   31) = (   0.0277778   0.4009377   0.0000000), wk =   0.0185185
        k(   32) = (   0.0277778   0.4330127   0.0000000), wk =   0.0185185
        k(   33) = (   0.0277778   0.4650877   0.0000000), wk =   0.0185185
        k(   34) = (   0.0277778   0.4971627   0.0000000), wk =   0.0185185
        k(   35) = (   0.0277778   0.5292377   0.0000000), wk =   0.0185185
        k(   36) = (   0.0277778   0.5613128   0.0000000), wk =   0.0185185
        k(   37) = (   0.0555556   0.0962250   0.0000000), wk =   0.0092593
        k(   38) = (   0.0555556   0.1283001   0.0000000), wk =   0.0185185
        k(   39) = (   0.0555556   0.1603751   0.0000000), wk =   0.0185185
        k(   40) = (   0.0555556   0.1924501   0.0000000), wk =   0.0185185
        k(   41) = (   0.0555556   0.2245251   0.0000000), wk =   0.0185185
        k(   42) = (   0.0555556   0.2566001   0.0000000), wk =   0.0185185
        k(   43) = (   0.0555556   0.2886751   0.0000000), wk =   0.0185185
        k(   44) = (   0.0555556   0.3207501   0.0000000), wk =   0.0185185
        k(   45) = (   0.0555556   0.3528252   0.0000000), wk =   0.0185185
        k(   46) = (   0.0555556   0.3849002   0.0000000), wk =   0.0185185
        k(   47) = (   0.0555556   0.4169752   0.0000000), wk =   0.0185185
        k(   48) = (   0.0555556   0.4490502   0.0000000), wk =   0.0185185
        k(   49) = (   0.0555556   0.4811252   0.0000000), wk =   0.0185185
        k(   50) = (   0.0555556   0.5132002   0.0000000), wk =   0.0185185
        k(   51) = (   0.0555556   0.5452753   0.0000000), wk =   0.0185185
        k(   52) = (   0.0555556   0.5773503   0.0000000), wk =   0.0092593
        k(   53) = (   0.0833333   0.1443376   0.0000000), wk =   0.0092593
        k(   54) = (   0.0833333   0.1764126   0.0000000), wk =   0.0185185
        k(   55) = (   0.0833333   0.2084876   0.0000000), wk =   0.0185185
        k(   56) = (   0.0833333   0.2405626   0.0000000), wk =   0.0185185
        k(   57) = (   0.0833333   0.2726376   0.0000000), wk =   0.0185185
        k(   58) = (   0.0833333   0.3047126   0.0000000), wk =   0.0185185
        k(   59) = (   0.0833333   0.3367877   0.0000000), wk =   0.0185185
        k(   60) = (   0.0833333   0.3688627   0.0000000), wk =   0.0185185
        k(   61) = (   0.0833333   0.4009377   0.0000000), wk =   0.0185185
        k(   62) = (   0.0833333   0.4330127   0.0000000), wk =   0.0185185
        k(   63) = (   0.0833333   0.4650877   0.0000000), wk =   0.0185185
        k(   64) = (   0.0833333   0.4971627   0.0000000), wk =   0.0185185
        k(   65) = (   0.0833333   0.5292377   0.0000000), wk =   0.0185185
        k(   66) = (   0.0833333   0.5613128   0.0000000), wk =   0.0185185
        k(   67) = (   0.1111111   0.1924501   0.0000000), wk =   0.0092593
        k(   68) = (   0.1111111   0.2245251   0.0000000), wk =   0.0185185
        k(   69) = (   0.1111111   0.2566001   0.0000000), wk =   0.0185185
        k(   70) = (   0.1111111   0.2886751   0.0000000), wk =   0.0185185
        k(   71) = (   0.1111111   0.3207501   0.0000000), wk =   0.0185185
        k(   72) = (   0.1111111   0.3528252   0.0000000), wk =   0.0185185
        k(   73) = (   0.1111111   0.3849002   0.0000000), wk =   0.0185185
        k(   74) = (   0.1111111   0.4169752   0.0000000), wk =   0.0185185
        k(   75) = (   0.1111111   0.4490502   0.0000000), wk =   0.0185185
        k(   76) = (   0.1111111   0.4811252   0.0000000), wk =   0.0185185
        k(   77) = (   0.1111111   0.5132002   0.0000000), wk =   0.0185185
        k(   78) = (   0.1111111   0.5452753   0.0000000), wk =   0.0185185
        k(   79) = (   0.1111111   0.5773503   0.0000000), wk =   0.0092593
        k(   80) = (   0.1388889   0.2405626   0.0000000), wk =   0.0092593
        k(   81) = (   0.1388889   0.2726376   0.0000000), wk =   0.0185185
        k(   82) = (   0.1388889   0.3047126   0.0000000), wk =   0.0185185
        k(   83) = (   0.1388889   0.3367877   0.0000000), wk =   0.0185185
        k(   84) = (   0.1388889   0.3688627   0.0000000), wk =   0.0185185
        k(   85) = (   0.1388889   0.4009377   0.0000000), wk =   0.0185185
        k(   86) = (   0.1388889   0.4330127   0.0000000), wk =   0.0185185
        k(   87) = (   0.1388889   0.4650877   0.0000000), wk =   0.0185185
        k(   88) = (   0.1388889   0.4971627   0.0000000), wk =   0.0185185
        k(   89) = (   0.1388889   0.5292377   0.0000000), wk =   0.0185185
        k(   90) = (   0.1388889   0.5613128   0.0000000), wk =   0.0185185
        k(   91) = (   0.1666667   0.2886751   0.0000000), wk =   0.0092593
        k(   92) = (   0.1666667   0.3207501   0.0000000), wk =   0.0185185
        k(   93) = (   0.1666667   0.3528252   0.0000000), wk =   0.0185185
        k(   94) = (   0.1666667   0.3849002   0.0000000), wk =   0.0185185
        k(   95) = (   0.1666667   0.4169752   0.0000000), wk =   0.0185185
        k(   96) = (   0.1666667   0.4490502   0.0000000), wk =   0.0185185
        k(   97) = (   0.1666667   0.4811252   0.0000000), wk =   0.0185185
        k(   98) = (   0.1666667   0.5132002   0.0000000), wk =   0.0185185
        k(   99) = (   0.1666667   0.5452753   0.0000000), wk =   0.0185185
        k(  100) = (   0.1666667   0.5773503   0.0000000), wk =   0.0092593
        k(  101) = (   0.1944444   0.3367877   0.0000000), wk =   0.0092593
        k(  102) = (   0.1944444   0.3688627   0.0000000), wk =   0.0185185
        k(  103) = (   0.1944444   0.4009377   0.0000000), wk =   0.0185185
        k(  104) = (   0.1944444   0.4330127   0.0000000), wk =   0.0185185
        k(  105) = (   0.1944444   0.4650877   0.0000000), wk =   0.0185185
        k(  106) = (   0.1944444   0.4971627   0.0000000), wk =   0.0185185
        k(  107) = (   0.1944444   0.5292377   0.0000000), wk =   0.0185185
        k(  108) = (   0.1944444   0.5613128   0.0000000), wk =   0.0185185
        k(  109) = (   0.2222222   0.3849002   0.0000000), wk =   0.0092593
        k(  110) = (   0.2222222   0.4169752   0.0000000), wk =   0.0185185
        k(  111) = (   0.2222222   0.4490502   0.0000000), wk =   0.0185185
        k(  112) = (   0.2222222   0.4811252   0.0000000), wk =   0.0185185
        k(  113) = (   0.2222222   0.5132002   0.0000000), wk =   0.0185185
        k(  114) = (   0.2222222   0.5452753   0.0000000), wk =   0.0185185
        k(  115) = (   0.2222222   0.5773503   0.0000000), wk =   0.0092593
        k(  116) = (   0.2500000   0.4330127   0.0000000), wk =   0.0092593
        k(  117) = (   0.2500000   0.4650877   0.0000000), wk =   0.0185185
        k(  118) = (   0.2500000   0.4971627   0.0000000), wk =   0.0185185
        k(  119) = (   0.2500000   0.5292377   0.0000000), wk =   0.0185185
        k(  120) = (   0.2500000   0.5613128   0.0000000), wk =   0.0185185
        k(  121) = (   0.2777778   0.4811252   0.0000000), wk =   0.0092593
        k(  122) = (   0.2777778   0.5132002   0.0000000), wk =   0.0185185
        k(  123) = (   0.2777778   0.5452753   0.0000000), wk =   0.0185185
        k(  124) = (   0.2777778   0.5773503   0.0000000), wk =   0.0092593
        k(  125) = (   0.3055556   0.5292377   0.0000000), wk =   0.0092593
        k(  126) = (   0.3055556   0.5613128   0.0000000), wk =   0.0185185
        k(  127) = (   0.3333333   0.5773503   0.0000000), wk =   0.0030864

                       cryst. coord.
        k(    1) = (   0.0000000   0.0000000   0.0000000), wk =   0.0015432
        k(    2) = (   0.0000000   0.0277778   0.0000000), wk =   0.0092593
        k(    3) = (   0.0000000   0.0555556   0.0000000), wk =   0.0092593
        k(    4) = (   0.0000000   0.0833333   0.0000000), wk =   0.0092593
        k(    5) = (   0.0000000   0.1111111   0.0000000), wk =   0.0092593
        k(    6) = (   0.0000000   0.1388889   0.0000000), wk =   0.0092593
        k(    7) = (   0.0000000   0.1666667   0.0000000), wk =   0.0092593
        k(    8) = (   0.0000000   0.1944444   0.0000000), wk =   0.0092593
        k(    9) = (   0.0000000   0.2222222   0.0000000), wk =   0.0092593
        k(   10) = (   0.0000000   0.2500000   0.0000000), wk =   0.0092593
        k(   11) = (   0.0000000   0.2777778   0.0000000), wk =   0.0092593
        k(   12) = (   0.0000000   0.3055556   0.0000000), wk =   0.0092593
        k(   13) = (   0.0000000   0.3333333   0.0000000), wk =   0.0092593
        k(   14) = (   0.0000000   0.3611111   0.0000000), wk =   0.0092593
        k(   15) = (   0.0000000   0.3888889   0.0000000), wk =   0.0092593
        k(   16) = (   0.0000000   0.4166667   0.0000000), wk =   0.0092593
        k(   17) = (   0.0000000   0.4444444   0.0000000), wk =   0.0092593
        k(   18) = (   0.0000000   0.4722222   0.0000000), wk =   0.0092593
        k(   19) = (   0.0000000  -0.5000000   0.0000000), wk =   0.0046296
        k(   20) = (   0.0277778   0.0277778   0.0000000), wk =   0.0092593
        k(   21) = (   0.0277778   0.0555556   0.0000000), wk =   0.0185185
        k(   22) = (   0.0277778   0.0833333   0.0000000), wk =   0.0185185
        k(   23) = (   0.0277778   0.1111111   0.0000000), wk =   0.0185185
        k(   24) = (   0.0277778   0.1388889   0.0000000), wk =   0.0185185
        k(   25) = (   0.0277778   0.1666667   0.0000000), wk =   0.0185185
        k(   26) = (   0.0277778   0.1944444   0.0000000), wk =   0.0185185
        k(   27) = (   0.0277778   0.2222222   0.0000000), wk =   0.0185185
        k(   28) = (   0.0277778   0.2500000   0.0000000), wk =   0.0185185
        k(   29) = (   0.0277778   0.2777778   0.0000000), wk =   0.0185185
        k(   30) = (   0.0277778   0.3055556   0.0000000), wk =   0.0185185
        k(   31) = (   0.0277778   0.3333333   0.0000000), wk =   0.0185185
        k(   32) = (   0.0277778   0.3611111   0.0000000), wk =   0.0185185
        k(   33) = (   0.0277778   0.3888889   0.0000000), wk =   0.0185185
        k(   34) = (   0.0277778   0.4166667   0.0000000), wk =   0.0185185
        k(   35) = (   0.0277778   0.4444444   0.0000000), wk =   0.0185185
        k(   36) = (   0.0277778   0.4722222   0.0000000), wk =   0.0185185
        k(   37) = (   0.0555556   0.0555556   0.0000000), wk =   0.0092593
        k(   38) = (   0.0555556   0.0833333   0.0000000), wk =   0.0185185
        k(   39) = (   0.0555556   0.1111111   0.0000000), wk =   0.0185185
        k(   40) = (   0.0555556   0.1388889   0.0000000), wk =   0.0185185
        k(   41) = (   0.0555556   0.1666667   0.0000000), wk =   0.0185185
        k(   42) = (   0.0555556   0.1944444   0.0000000), wk =   0.0185185
        k(   43) = (   0.0555556   0.2222222   0.0000000), wk =   0.0185185
        k(   44) = (   0.0555556   0.2500000   0.0000000), wk =   0.0185185
        k(   45) = (   0.0555556   0.2777778   0.0000000), wk =   0.0185185
        k(   46) = (   0.0555556   0.3055556   0.0000000), wk =   0.0185185
        k(   47) = (   0.0555556   0.3333333   0.0000000), wk =   0.0185185
        k(   48) = (   0.0555556   0.3611111   0.0000000), wk =   0.0185185
        k(   49) = (   0.0555556   0.3888889   0.0000000), wk =   0.0185185
        k(   50) = (   0.0555556   0.4166667   0.0000000), wk =   0.0185185
        k(   51) = (   0.0555556   0.4444444   0.0000000), wk =   0.0185185
        k(   52) = (   0.0555556   0.4722222   0.0000000), wk =   0.0092593
        k(   53) = (   0.0833333   0.0833333   0.0000000), wk =   0.0092593
        k(   54) = (   0.0833333   0.1111111   0.0000000), wk =   0.0185185
        k(   55) = (   0.0833333   0.1388889   0.0000000), wk =   0.0185185
        k(   56) = (   0.0833333   0.1666667   0.0000000), wk =   0.0185185
        k(   57) = (   0.0833333   0.1944444   0.0000000), wk =   0.0185185
        k(   58) = (   0.0833333   0.2222222   0.0000000), wk =   0.0185185
        k(   59) = (   0.0833333   0.2500000   0.0000000), wk =   0.0185185
        k(   60) = (   0.0833333   0.2777778   0.0000000), wk =   0.0185185
        k(   61) = (   0.0833333   0.3055556   0.0000000), wk =   0.0185185
        k(   62) = (   0.0833333   0.3333333   0.0000000), wk =   0.0185185
        k(   63) = (   0.0833333   0.3611111   0.0000000), wk =   0.0185185
        k(   64) = (   0.0833333   0.3888889   0.0000000), wk =   0.0185185
        k(   65) = (   0.0833333   0.4166667   0.0000000), wk =   0.0185185
        k(   66) = (   0.0833333   0.4444444   0.0000000), wk =   0.0185185
        k(   67) = (   0.1111111   0.1111111   0.0000000), wk =   0.0092593
        k(   68) = (   0.1111111   0.1388889   0.0000000), wk =   0.0185185
        k(   69) = (   0.1111111   0.1666667   0.0000000), wk =   0.0185185
        k(   70) = (   0.1111111   0.1944444   0.0000000), wk =   0.0185185
        k(   71) = (   0.1111111   0.2222222   0.0000000), wk =   0.0185185
        k(   72) = (   0.1111111   0.2500000   0.0000000), wk =   0.0185185
        k(   73) = (   0.1111111   0.2777778   0.0000000), wk =   0.0185185
        k(   74) = (   0.1111111   0.3055556   0.0000000), wk =   0.0185185
        k(   75) = (   0.1111111   0.3333333   0.0000000), wk =   0.0185185
        k(   76) = (   0.1111111   0.3611111   0.0000000), wk =   0.0185185
        k(   77) = (   0.1111111   0.3888889   0.0000000), wk =   0.0185185
        k(   78) = (   0.1111111   0.4166667   0.0000000), wk =   0.0185185
        k(   79) = (   0.1111111   0.4444444   0.0000000), wk =   0.0092593
        k(   80) = (   0.1388889   0.1388889   0.0000000), wk =   0.0092593
        k(   81) = (   0.1388889   0.1666667   0.0000000), wk =   0.0185185
        k(   82) = (   0.1388889   0.1944444   0.0000000), wk =   0.0185185
        k(   83) = (   0.1388889   0.2222222   0.0000000), wk =   0.0185185
        k(   84) = (   0.1388889   0.2500000   0.0000000), wk =   0.0185185
        k(   85) = (   0.1388889   0.2777778   0.0000000), wk =   0.0185185
        k(   86) = (   0.1388889   0.3055556   0.0000000), wk =   0.0185185
        k(   87) = (   0.1388889   0.3333333   0.0000000), wk =   0.0185185
        k(   88) = (   0.1388889   0.3611111   0.0000000), wk =   0.0185185
        k(   89) = (   0.1388889   0.3888889   0.0000000), wk =   0.0185185
        k(   90) = (   0.1388889   0.4166667   0.0000000), wk =   0.0185185
        k(   91) = (   0.1666667   0.1666667   0.0000000), wk =   0.0092593
        k(   92) = (   0.1666667   0.1944444   0.0000000), wk =   0.0185185
        k(   93) = (   0.1666667   0.2222222   0.0000000), wk =   0.0185185
        k(   94) = (   0.1666667   0.2500000   0.0000000), wk =   0.0185185
        k(   95) = (   0.1666667   0.2777778   0.0000000), wk =   0.0185185
        k(   96) = (   0.1666667   0.3055556   0.0000000), wk =   0.0185185
        k(   97) = (   0.1666667   0.3333333   0.0000000), wk =   0.0185185
        k(   98) = (   0.1666667   0.3611111   0.0000000), wk =   0.0185185
        k(   99) = (   0.1666667   0.3888889   0.0000000), wk =   0.0185185
        k(  100) = (   0.1666667   0.4166667   0.0000000), wk =   0.0092593
        k(  101) = (   0.1944444   0.1944444   0.0000000), wk =   0.0092593
        k(  102) = (   0.1944444   0.2222222   0.0000000), wk =   0.0185185
        k(  103) = (   0.1944444   0.2500000   0.0000000), wk =   0.0185185
        k(  104) = (   0.1944444   0.2777778   0.0000000), wk =   0.0185185
        k(  105) = (   0.1944444   0.3055556   0.0000000), wk =   0.0185185
        k(  106) = (   0.1944444   0.3333333   0.0000000), wk =   0.0185185
        k(  107) = (   0.1944444   0.3611111   0.0000000), wk =   0.0185185
        k(  108) = (   0.1944444   0.3888889   0.0000000), wk =   0.0185185
        k(  109) = (   0.2222222   0.2222222   0.0000000), wk =   0.0092593
        k(  110) = (   0.2222222   0.2500000   0.0000000), wk =   0.0185185
        k(  111) = (   0.2222222   0.2777778   0.0000000), wk =   0.0185185
        k(  112) = (   0.2222222   0.3055556   0.0000000), wk =   0.0185185
        k(  113) = (   0.2222222   0.3333333   0.0000000), wk =   0.0185185
        k(  114) = (   0.2222222   0.3611111   0.0000000), wk =   0.0185185
        k(  115) = (   0.2222222   0.3888889   0.0000000), wk =   0.0092593
        k(  116) = (   0.2500000   0.2500000   0.0000000), wk =   0.0092593
        k(  117) = (   0.2500000   0.2777778   0.0000000), wk =   0.0185185
        k(  118) = (   0.2500000   0.3055556   0.0000000), wk =   0.0185185
        k(  119) = (   0.2500000   0.3333333   0.0000000), wk =   0.0185185
        k(  120) = (   0.2500000   0.3611111   0.0000000), wk =   0.0185185
        k(  121) = (   0.2777778   0.2777778   0.0000000), wk =   0.0092593
        k(  122) = (   0.2777778   0.3055556   0.0000000), wk =   0.0185185
        k(  123) = (   0.2777778   0.3333333   0.0000000), wk =   0.0185185
        k(  124) = (   0.2777778   0.3611111   0.0000000), wk =   0.0092593
        k(  125) = (   0.3055556   0.3055556   0.0000000), wk =   0.0092593
        k(  126) = (   0.3055556   0.3333333   0.0000000), wk =   0.0185185
        k(  127) = (   0.3333333   0.3333333   0.0000000), wk =   0.0030864

     Dense  grid:   105985 G-vectors     FFT dimensions: (  36,  36, 250)

     Dynamical RAM for                 wfc:       0.81 MB

     Dynamical RAM for     wfc (w. buffer):       0.81 MB

     Dynamical RAM for           str. fact:       0.81 MB

     Dynamical RAM for           local pot:       0.00 MB

     Dynamical RAM for          nlocal pot:       1.62 MB

     Dynamical RAM for                qrad:       0.46 MB

     Dynamical RAM for          rho,v,vnew:       6.13 MB

     Dynamical RAM for           G-vectors:       3.44 MB

     Dynamical RAM for          h,s,v(r/c):       0.01 MB

     Dynamical RAM for          <psi|beta>:       0.00 MB

     Dynamical RAM for                 psi:       1.62 MB

     Dynamical RAM for                hpsi:       1.62 MB

     Dynamical RAM for                spsi:       1.62 MB

     Dynamical RAM for      wfcinit/wfcrot:       1.62 MB

     Dynamical RAM for           addusdens:      36.39 MB

     Estimated static dynamical RAM per process >      21.06 MB

     Estimated max dynamical RAM per process >      57.45 MB

     Estimated total dynamical RAM >     114.89 MB

     Check: negative core charge=   -0.000002

     The potential is recalculated from file :
     ./tmp/graphene1.save/charge-density


     negative rho (up, down):  1.210E-04 0.000E+00
     Starting wfcs are    8 randomized atomic wfcs
     Checking if some PAW data can be deallocated... 

     Band Structure Calculation
     Davidson diagonalization with overlap

     Computing kpt #:     1  of   127
     total cpu time spent up to now is        9.5 secs

     Computing kpt #:     2  of   127
     total cpu time spent up to now is       15.5 secs

     Computing kpt #:     3  of   127
     total cpu time spent up to now is       21.6 secs

     Computing kpt #:     4  of   127
     total cpu time spent up to now is       27.5 secs

     Computing kpt #:     5  of   127
     total cpu time spent up to now is       34.0 secs

     Computing kpt #:     6  of   127
     total cpu time spent up to now is       41.0 secs

     Computing kpt #:     7  of   127
     total cpu time spent up to now is       47.9 secs

     Computing kpt #:     8  of   127
     total cpu time spent up to now is       55.5 secs

     Computing kpt #:     9  of   127
     total cpu time spent up to now is       65.1 secs

     Computing kpt #:    10  of   127
     total cpu time spent up to now is       72.5 secs

     Computing kpt #:    11  of   127
     total cpu time spent up to now is       81.5 secs

     Computing kpt #:    12  of   127
     total cpu time spent up to now is       88.3 secs

     Computing kpt #:    13  of   127
     total cpu time spent up to now is       93.4 secs

     Computing kpt #:    14  of   127
     total cpu time spent up to now is      100.5 secs

     Computing kpt #:    15  of   127
     total cpu time spent up to now is      107.7 secs

     Computing kpt #:    16  of   127
     total cpu time spent up to now is      113.8 secs

     Computing kpt #:    17  of   127
     total cpu time spent up to now is      120.4 secs

     Computing kpt #:    18  of   127
     total cpu time spent up to now is      126.2 secs

     Computing kpt #:    19  of   127
     total cpu time spent up to now is      131.3 secs

     Computing kpt #:    20  of   127
     total cpu time spent up to now is      137.5 secs

     Computing kpt #:    21  of   127
     total cpu time spent up to now is      143.8 secs

     Computing kpt #:    22  of   127
     total cpu time spent up to now is      150.9 secs

     Computing kpt #:    23  of   127
     total cpu time spent up to now is      158.4 secs

     Computing kpt #:    24  of   127
     total cpu time spent up to now is      165.0 secs

     Computing kpt #:    25  of   127
     total cpu time spent up to now is      173.7 secs

     Computing kpt #:    26  of   127
     total cpu time spent up to now is      183.8 secs

     Computing kpt #:    27  of   127
     total cpu time spent up to now is      190.6 secs

     Computing kpt #:    28  of   127
     total cpu time spent up to now is      199.4 secs

     Computing kpt #:    29  of   127
     total cpu time spent up to now is      206.3 secs

     Computing kpt #:    30  of   127
     total cpu time spent up to now is      212.9 secs

     Computing kpt #:    31  of   127
     total cpu time spent up to now is      219.7 secs

     Computing kpt #:    32  of   127
     total cpu time spent up to now is      226.0 secs

     Computing kpt #:    33  of   127
     total cpu time spent up to now is      232.5 secs

     Computing kpt #:    34  of   127
     total cpu time spent up to now is      239.6 secs

     Computing kpt #:    35  of   127
     total cpu time spent up to now is      246.3 secs

     Computing kpt #:    36  of   127
     total cpu time spent up to now is      255.5 secs

     Computing kpt #:    37  of   127
     total cpu time spent up to now is      262.1 secs

     Computing kpt #:    38  of   127
     total cpu time spent up to now is      268.2 secs

     Computing kpt #:    39  of   127
     total cpu time spent up to now is      274.4 secs

     Computing kpt #:    40  of   127
     total cpu time spent up to now is      281.5 secs

     Computing kpt #:    41  of   127
     total cpu time spent up to now is      288.9 secs

     Computing kpt #:    42  of   127
     total cpu time spent up to now is      297.7 secs

     Computing kpt #:    43  of   127
     total cpu time spent up to now is      305.4 secs

     Computing kpt #:    44  of   127
     total cpu time spent up to now is      317.1 secs

     Computing kpt #:    45  of   127
     total cpu time spent up to now is      324.6 secs

     Computing kpt #:    46  of   127
     total cpu time spent up to now is      332.8 secs

     Computing kpt #:    47  of   127
     total cpu time spent up to now is      339.6 secs

     Computing kpt #:    48  of   127
     total cpu time spent up to now is      345.7 secs

     Computing kpt #:    49  of   127
     total cpu time spent up to now is      351.6 secs

     Computing kpt #:    50  of   127
     total cpu time spent up to now is      357.6 secs

     Computing kpt #:    51  of   127
     total cpu time spent up to now is      363.6 secs

     Computing kpt #:    52  of   127
     total cpu time spent up to now is      368.9 secs

     Computing kpt #:    53  of   127
     total cpu time spent up to now is      375.7 secs

     Computing kpt #:    54  of   127
     total cpu time spent up to now is      382.8 secs

     Computing kpt #:    55  of   127
     total cpu time spent up to now is      390.3 secs

     Computing kpt #:    56  of   127
     total cpu time spent up to now is      399.2 secs

     Computing kpt #:    57  of   127
     total cpu time spent up to now is      405.6 secs

     Computing kpt #:    58  of   127
     total cpu time spent up to now is      413.2 secs

     Computing kpt #:    59  of   127
     total cpu time spent up to now is      422.6 secs

     Computing kpt #:    60  of   127
     total cpu time spent up to now is      429.3 secs

     Computing kpt #:    61  of   127
     total cpu time spent up to now is      436.6 secs

     Computing kpt #:    62  of   127
     total cpu time spent up to now is      443.1 secs

     Computing kpt #:    63  of   127
     total cpu time spent up to now is      449.1 secs

     Computing kpt #:    64  of   127
     total cpu time spent up to now is      455.1 secs

     Computing kpt #:    65  of   127
     total cpu time spent up to now is      460.7 secs

     Computing kpt #:    66  of   127
     total cpu time spent up to now is      468.1 secs

     Computing kpt #:    67  of   127
     total cpu time spent up to now is      476.0 secs

     Computing kpt #:    68  of   127
     total cpu time spent up to now is      485.2 secs

     Computing kpt #:    69  of   127
     total cpu time spent up to now is      491.9 secs

     Computing kpt #:    70  of   127
     total cpu time spent up to now is      498.0 secs

     Computing kpt #:    71  of   127
     total cpu time spent up to now is      504.9 secs

     Computing kpt #:    72  of   127
     total cpu time spent up to now is      513.3 secs

     Computing kpt #:    73  of   127
     total cpu time spent up to now is      519.3 secs

     Computing kpt #:    74  of   127
     total cpu time spent up to now is      526.2 secs

     Computing kpt #:    75  of   127
     total cpu time spent up to now is      533.0 secs

     Computing kpt #:    76  of   127
     total cpu time spent up to now is      538.9 secs

     Computing kpt #:    77  of   127
     total cpu time spent up to now is      545.0 secs

     Computing kpt #:    78  of   127
     total cpu time spent up to now is      550.7 secs

     Computing kpt #:    79  of   127
     total cpu time spent up to now is      556.0 secs

     Computing kpt #:    80  of   127
     total cpu time spent up to now is      561.5 secs

     Computing kpt #:    81  of   127
     total cpu time spent up to now is      567.2 secs

     Computing kpt #:    82  of   127
     total cpu time spent up to now is      572.5 secs

     Computing kpt #:    83  of   127
     total cpu time spent up to now is      578.4 secs

     Computing kpt #:    84  of   127
     total cpu time spent up to now is      585.9 secs

     Computing kpt #:    85  of   127
     total cpu time spent up to now is      592.4 secs

     Computing kpt #:    86  of   127
     total cpu time spent up to now is      597.5 secs

     Computing kpt #:    87  of   127
     total cpu time spent up to now is      603.3 secs

     Computing kpt #:    88  of   127
     total cpu time spent up to now is      608.4 secs

     Computing kpt #:    89  of   127
     total cpu time spent up to now is      614.1 secs

     Computing kpt #:    90  of   127
     total cpu time spent up to now is      620.8 secs

     Computing kpt #:    91  of   127
     total cpu time spent up to now is      626.5 secs

     Computing kpt #:    92  of   127
     total cpu time spent up to now is      631.7 secs

     Computing kpt #:    93  of   127
     total cpu time spent up to now is      637.0 secs

     Computing kpt #:    94  of   127
     total cpu time spent up to now is      645.0 secs

     Computing kpt #:    95  of   127
     total cpu time spent up to now is      651.4 secs

     Computing kpt #:    96  of   127
     total cpu time spent up to now is      654.6 secs

     Computing kpt #:    97  of   127
     total cpu time spent up to now is      657.8 secs

     Computing kpt #:    98  of   127
     total cpu time spent up to now is      660.6 secs

     Computing kpt #:    99  of   127
     total cpu time spent up to now is      664.1 secs

     Computing kpt #:   100  of   127
     total cpu time spent up to now is      668.4 secs

     Computing kpt #:   101  of   127
     total cpu time spent up to now is      671.5 secs

     Computing kpt #:   102  of   127
     total cpu time spent up to now is      674.8 secs

     Computing kpt #:   103  of   127
     total cpu time spent up to now is      679.5 secs

     Computing kpt #:   104  of   127
     total cpu time spent up to now is      684.0 secs

     Computing kpt #:   105  of   127
     total cpu time spent up to now is      688.1 secs

     Computing kpt #:   106  of   127
     total cpu time spent up to now is      691.0 secs

     Computing kpt #:   107  of   127
     total cpu time spent up to now is      693.9 secs

     Computing kpt #:   108  of   127
     total cpu time spent up to now is      696.8 secs

     Computing kpt #:   109  of   127
     total cpu time spent up to now is      699.6 secs

     Computing kpt #:   110  of   127
     total cpu time spent up to now is      703.3 secs

     Computing kpt #:   111  of   127
     total cpu time spent up to now is      707.3 secs

     Computing kpt #:   112  of   127
     total cpu time spent up to now is      710.3 secs

     Computing kpt #:   113  of   127
     total cpu time spent up to now is      712.9 secs

     Computing kpt #:   114  of   127
     total cpu time spent up to now is      715.3 secs

     Computing kpt #:   115  of   127
     total cpu time spent up to now is      718.3 secs

     Computing kpt #:   116  of   127
     total cpu time spent up to now is      721.2 secs

     Computing kpt #:   117  of   127
     total cpu time spent up to now is      726.5 secs

     Computing kpt #:   118  of   127
     total cpu time spent up to now is      729.6 secs

     Computing kpt #:   119  of   127
     total cpu time spent up to now is      732.1 secs

     Computing kpt #:   120  of   127
     total cpu time spent up to now is      734.4 secs

     Computing kpt #:   121  of   127
     total cpu time spent up to now is      737.6 secs

     Computing kpt #:   122  of   127
     total cpu time spent up to now is      741.0 secs

     Computing kpt #:   123  of   127
     total cpu time spent up to now is      744.4 secs

     Computing kpt #:   124  of   127
     total cpu time spent up to now is      747.3 secs

     Computing kpt #:   125  of   127
     total cpu time spent up to now is      750.0 secs

     Computing kpt #:   126  of   127
     total cpu time spent up to now is      752.3 secs

     Computing kpt #:   127  of   127
     total cpu time spent up to now is      754.5 secs

     ethr =  1.25E-08,  avg # of iterations = 45.1

     total cpu time spent up to now is      754.6 secs

     End of band structure calculation

          k = 0.0000 0.0000 0.0000 ( 13279 PWs)   bands (ev):

   -21.2364  -9.5391  -5.9405  -5.9405   0.7640   1.4080   1.5439   2.5526

     occupation numbers 
     1.0000   1.0000   1.0000   1.0000   0.0000   0.0000   0.0000   0.0000

          k = 0.0000 0.0321 0.0000 ( 13279 PWs)   bands (ev):

   -21.2198  -9.5198  -6.0133  -5.9747   0.7865   1.4308   1.5668   2.5752

     occupation numbers 
     1.0000   1.0000   1.0000   1.0000   0.0000   0.0000   0.0000   0.0000

          k = 0.0000 0.0642 0.0000 ( 13263 PWs)   bands (ev):

   -21.1698  -9.4619  -6.2256  -6.0740   0.8541   1.4991   1.6357   2.6433

     occupation numbers 
     1.0000   1.0000   1.0000   1.0000   0.0000   0.0000   0.0000   0.0000

          k = 0.0000 0.0962 0.0000 ( 13269 PWs)   bands (ev):

   -21.0865  -9.3655  -6.5623  -6.2299   0.9669   1.6129   1.7506   2.7566

     occupation numbers 
     1.0000   1.0000   1.0000   1.0000   0.0000   0.0000   0.0000   0.0000

          k = 0.0000 0.1283 0.0000 ( 13277 PWs)   bands (ev):

   -20.9702  -9.2311  -7.0022  -6.4305   1.1247   1.7721   1.9113   2.9151

     occupation numbers 
     1.0000   1.0000   1.0000   1.0000   0.0000   0.0000   0.0000   0.0000

          k = 0.0000 0.1604 0.0000 ( 13237 PWs)   bands (ev):

   -20.8208  -9.0591  -7.5233  -6.6626   1.3275   1.9767   2.1180   3.1187

     occupation numbers 
     1.0000   1.0000   1.0000   1.0000   0.0000   0.0000   0.0000   0.0000

          k = 0.0000 0.1925 0.0000 ( 13221 PWs)   bands (ev):

   -20.6387  -8.8501  -8.1053  -6.9137   1.5752   2.2265   2.3707   3.3670

     occupation numbers 
     1.0000   1.0000   1.0000   1.0000   0.0000   0.0000   0.0000   0.0000

          k = 0.0000 0.2245 0.0000 ( 13205 PWs)   bands (ev):

   -20.4242  -8.7304  -8.6050  -7.1729   1.8678   2.5208   2.6692   3.6583

     occupation numbers 
     1.0000   1.0000   1.0000   1.0000   0.0000   0.0000   0.0000   0.0000

          k = 0.0000 0.2566 0.0000 ( 13213 PWs)   bands (ev):

   -20.1776  -9.3843  -8.3250  -7.4308   2.2050   2.8579   3.0135   3.9476

     occupation numbers 
     1.0000   1.0000   1.0000   1.0000   0.0000   0.0000   0.0000   0.0000

          k = 0.0000 0.2887 0.0000 ( 13219 PWs)   bands (ev):

   -19.8994 -10.0551  -8.0117  -7.6802   2.5864   3.2054   3.4032   3.4779

     occupation numbers 
     1.0000   1.0000   1.0000   1.0000   0.0000   0.0000   0.0000   0.0000

          k = 0.0000 0.3208 0.0000 ( 13234 PWs)   bands (ev):

   -19.5903 -10.7333  -7.9150  -7.6672   2.7795   3.0111   3.6959   3.7624

     occupation numbers 
     1.0000   1.0000   1.0000   1.0000   0.0000   0.0000   0.0000   0.0000

          k = 0.0000 0.3528 0.0000 ( 13230 PWs)   bands (ev):

   -19.2511 -11.4110  -8.1306  -7.2947   2.1324   3.4653   3.6519   4.1648

     occupation numbers 
     1.0000   1.0000   1.0000   1.0000   0.0000   0.0000   0.0000   0.0000

          k = 0.0000 0.3849 0.0000 ( 13246 PWs)   bands (ev):

   -18.8832 -12.0814  -8.3233  -6.8987   1.4796   3.5006   4.0083   4.6826

     occupation numbers 
     1.0000   1.0000   1.0000   1.0000   0.0000   0.0000   0.0000   0.0000

          k = 0.0000 0.4170 0.0000 ( 13244 PWs)   bands (ev):

   -18.4885 -12.7383  -8.4904  -6.4861   0.8382   3.3965   4.5623   5.2451

     occupation numbers 
     1.0000   1.0000   1.0000   1.0000   0.0000   0.0000   0.0000   0.0000

          k = 0.0000 0.4491 0.0000 ( 13260 PWs)   bands (ev):

   -18.0704 -13.3749  -8.6297  -6.0680   0.2255   3.3065   5.1618   5.8507

     occupation numbers 
     1.0000   1.0000   1.0000   1.0000   0.0000   0.0000   0.0000   0.0000

          k = 0.0000 0.4811 0.0000 ( 13268 PWs)   bands (ev):

   -17.6356 -13.9821  -8.7396  -5.6633  -0.3351   3.2346   5.8034   6.4981

     occupation numbers 
     1.0000   1.0000   1.0000   1.0000   0.0000   0.0000   0.0000   0.0000

          k = 0.0000 0.5132 0.0000 ( 13236 PWs)   bands (ev):

   -17.2000 -14.5420  -8.8188  -5.3042  -0.8081   3.1824   6.4850   7.1846

     occupation numbers 
     1.0000   1.0000   1.0000   1.0000   0.0000   0.0000   0.0000   0.0000

          k = 0.0000 0.5453 0.0000 ( 13212 PWs)   bands (ev):

   -16.8126 -15.0046  -8.8667  -5.0432  -1.1384   3.1508   7.2028   7.9045

     occupation numbers 
     1.0000   1.0000   1.0000   1.0000   0.0000   0.0000   0.0000   0.0000

          k = 0.0000-0.5774 0.0000 ( 13234 PWs)   bands (ev):

   -16.6281 -15.2142  -8.8827  -4.9450  -1.2598   3.1402   7.8825   8.0356

     occupation numbers 
     1.0000   1.0000   1.0000   1.0000   0.0000   0.0000   0.0000   0.0000

          k = 0.0278 0.0481 0.0000 ( 13277 PWs)   bands (ev):

   -21.1864  -9.4812  -6.1542  -6.0431   0.8316   1.4763   1.6128   2.6206

     occupation numbers 
     1.0000   1.0000   1.0000   1.0000   0.0000   0.0000   0.0000   0.0000

          k = 0.0278 0.0802 0.0000 ( 13273 PWs)   bands (ev):

   -21.1198  -9.4040  -6.4245  -6.1749   0.9218   1.5674   1.7046   2.7113

     occupation numbers 
     1.0000   1.0000   1.0000   1.0000   0.0000   0.0000   0.0000   0.0000

          k = 0.0278 0.1123 0.0000 ( 13261 PWs)   bands (ev):

   -21.0200  -9.2887  -6.8074  -6.3586   1.0571   1.7039   1.8424   2.8472

     occupation numbers 
     1.0000   1.0000   1.0000   1.0000   0.0000   0.0000   0.0000   0.0000

          k = 0.0278 0.1443 0.0000 ( 13261 PWs)   bands (ev):

   -20.8872  -9.1355  -7.2824  -6.5806   1.2374   1.8858   2.0262   3.0283

     occupation numbers 
     1.0000   1.0000   1.0000   1.0000   0.0000   0.0000   0.0000   0.0000

          k = 0.0278 0.1764 0.0000 ( 13219 PWs)   bands (ev):

   -20.7214  -8.9449  -7.8287  -6.8276   1.4626   2.1130   2.2558   3.2543

     occupation numbers 
     1.0000   1.0000   1.0000   1.0000   0.0000   0.0000   0.0000   0.0000

          k = 0.0278 0.2085 0.0000 ( 13227 PWs)   bands (ev):

   -20.5231  -8.7178  -8.4278  -7.0875   1.7328   2.3852   2.5314   3.5246

     occupation numbers 
     1.0000   1.0000   1.0000   1.0000   0.0000   0.0000   0.0000   0.0000

          k = 0.0278 0.2406 0.0000 ( 13214 PWs)   bands (ev):

   -20.2925  -9.0636  -8.4552  -7.3501   2.0477   2.7014   2.8528   3.8337

     occupation numbers 
     1.0000   1.0000   1.0000   1.0000   0.0000   0.0000   0.0000   0.0000

          k = 0.0278 0.2726 0.0000 ( 13219 PWs)   bands (ev):

   -20.0301  -9.7230  -8.1584  -7.6070   2.4071   3.0560   3.2200   3.7317

     occupation numbers 
     1.0000   1.0000   1.0000   1.0000   0.0000   0.0000   0.0000   0.0000

          k = 0.0278 0.3047 0.0000 ( 13210 PWs)   bands (ev):

   -19.7364 -10.3952  -7.8516  -7.8293   2.8105   3.0717   3.5039   3.6317

     occupation numbers 
     1.0000   1.0000   1.0000   1.0000   0.0000   0.0000   0.0000   0.0000

          k = 0.0278 0.3368 0.0000 ( 13231 PWs)   bands (ev):

   -19.4123 -11.0713  -8.0788  -7.4705   2.4439   3.2557   3.7797   3.9394

     occupation numbers 
     1.0000   1.0000   1.0000   1.0000   0.0000   0.0000   0.0000   0.0000

          k = 0.0278 0.3689 0.0000 ( 13234 PWs)   bands (ev):

   -19.0587 -11.7440  -8.2846  -7.0856   1.7936   3.6192   3.7810   4.4340

     occupation numbers 
     1.0000   1.0000   1.0000   1.0000   0.0000   0.0000   0.0000   0.0000

          k = 0.0278 0.4009 0.0000 ( 13231 PWs)   bands (ev):

   -18.6772 -12.4067  -8.4657  -6.6803   1.1468   3.5247   4.2962   4.9742

     occupation numbers 
     1.0000   1.0000   1.0000   1.0000   0.0000   0.0000   0.0000   0.0000

          k = 0.0278 0.4330 0.0000 ( 13244 PWs)   bands (ev):

   -18.2703 -13.0531  -8.6198  -6.2632   0.5192   3.4270   4.8733   5.5581

     occupation numbers 
     1.0000   1.0000   1.0000   1.0000   0.0000   0.0000   0.0000   0.0000

          k = 0.0278 0.4651 0.0000 ( 13238 PWs)   bands (ev):

   -17.8428 -13.6754  -8.7451  -5.8487  -0.0697   3.3459   5.4939   6.1843

     occupation numbers 
     1.0000   1.0000   1.0000   1.0000   0.0000   0.0000   0.0000   0.0000

          k = 0.0278 0.4972 0.0000 ( 13243 PWs)   bands (ev):

   -17.4047 -14.2615  -8.8401  -5.4614  -0.5912   3.2838   6.1556   6.8509

     occupation numbers 
     1.0000   1.0000   1.0000   1.0000   0.0000   0.0000   0.0000   0.0000

          k = 0.0278 0.5292 0.0000 ( 13241 PWs)   bands (ev):

   -16.9831 -14.7825  -8.9039  -5.1430  -1.0006   3.2418   6.8555   7.5538

     occupation numbers 
     1.0000   1.0000   1.0000   1.0000   0.0000   0.0000   0.0000   0.0000

          k = 0.0278 0.5613 0.0000 ( 13226 PWs)   bands (ev):

   -16.6679 -15.1477  -8.9360  -4.9555  -1.2341   3.2206   7.5867   8.2784

     occupation numbers 
     1.0000   1.0000   1.0000   1.0000   0.0000   0.0000   0.0000   0.0000

          k = 0.0556 0.0962 0.0000 ( 13255 PWs)   bands (ev):

   -21.0366  -9.3079  -6.7339  -6.3418   1.0345   1.6812   1.8195   2.8246

     occupation numbers 
     1.0000   1.0000   1.0000   1.0000   0.0000   0.0000   0.0000   0.0000

          k = 0.0556 0.1283 0.0000 ( 13261 PWs)   bands (ev):

   -20.9203  -9.1737  -7.1404  -6.5587   1.1923   1.8404   1.9803   2.9831

     occupation numbers 
     1.0000   1.0000   1.0000   1.0000   0.0000   0.0000   0.0000   0.0000

          k = 0.0556 0.1604 0.0000 ( 13243 PWs)   bands (ev):

   -20.7711  -9.0019  -7.6282  -6.8083   1.3951   2.0449   2.1870   3.1867

     occupation numbers 
     1.0000   1.0000   1.0000   1.0000   0.0000   0.0000   0.0000   0.0000

          k = 0.0556 0.1925 0.0000 ( 13227 PWs)   bands (ev):

   -20.5892  -8.7933  -8.1804  -7.0758   1.6428   2.2946   2.4396   3.4350

     occupation numbers 
     1.0000   1.0000   1.0000   1.0000   0.0000   0.0000   0.0000   0.0000

          k = 0.0556 0.2245 0.0000 ( 13197 PWs)   bands (ev):

   -20.3748  -8.7806  -8.5485  -7.3491   1.9354   2.5890   2.7381   3.7265

     occupation numbers 
     1.0000   1.0000   1.0000   1.0000   0.0000   0.0000   0.0000   0.0000

          k = 0.0556 0.2566 0.0000 ( 13198 PWs)   bands (ev):

   -20.1284  -9.4142  -8.2690  -7.6187   2.2726   2.9262   3.0825   3.9393

     occupation numbers 
     1.0000   1.0000   1.0000   1.0000   0.0000   0.0000   0.0000   0.0000

          k = 0.0556 0.2887 0.0000 ( 13196 PWs)   bands (ev):

   -19.8505 -10.0688  -7.9561  -7.8774   2.6542   3.2466   3.4271   3.4725

     occupation numbers 
     1.0000   1.0000   1.0000   1.0000   0.0000   0.0000   0.0000   0.0000

          k = 0.0556 0.3208 0.0000 ( 13230 PWs)   bands (ev):

   -19.5417 -10.7343  -8.1196  -7.6121   2.7180   3.0795   3.7577   3.9056

     occupation numbers 
     1.0000   1.0000   1.0000   1.0000   0.0000   0.0000   0.0000   0.0000

          k = 0.0556 0.3528 0.0000 ( 13240 PWs)   bands (ev):

   -19.2029 -11.4020  -8.3409  -7.2400   2.0792   3.5448   3.9434   4.2287

     occupation numbers 
     1.0000   1.0000   1.0000   1.0000   0.0000   0.0000   0.0000   0.0000

          k = 0.0556 0.3849 0.0000 ( 13242 PWs)   bands (ev):

   -18.8354 -12.0645  -8.5381  -6.8444   1.4356   3.8001   4.0810   4.7463

     occupation numbers 
     1.0000   1.0000   1.0000   1.0000   0.0000   0.0000   0.0000   0.0000

          k = 0.0556 0.4170 0.0000 ( 13232 PWs)   bands (ev):

   -18.4413 -12.7152  -8.7085  -6.4320   0.8024   3.7015   4.6295   5.3078

     occupation numbers 
     1.0000   1.0000   1.0000   1.0000   0.0000   0.0000   0.0000   0.0000

          k = 0.0556 0.4491 0.0000 ( 13243 PWs)   bands (ev):

   -18.0238 -13.3470  -8.8502  -6.0138   0.1963   3.6121   5.2280   5.9118

     occupation numbers 
     1.0000   1.0000   1.0000   1.0000   0.0000   0.0000   0.0000   0.0000

          k = 0.0556 0.4811 0.0000 ( 13241 PWs)   bands (ev):

   -17.5896 -13.9505  -8.9618  -5.6083  -0.3599   3.5404   5.8687   6.5564

     occupation numbers 
     1.0000   1.0000   1.0000   1.0000   0.0000   0.0000   0.0000   0.0000

          k = 0.0556 0.5132 0.0000 ( 13258 PWs)   bands (ev):

   -17.1547 -14.5076  -9.0422  -5.2479  -0.8304   3.4882   6.5490   7.2383

     occupation numbers 
     1.0000   1.0000   1.0000   1.0000   0.0000   0.0000   0.0000   0.0000

          k = 0.0556 0.5453 0.0000 ( 13249 PWs)   bands (ev):

   -16.7678 -14.9685  -9.0907  -4.9851  -1.1602   3.4565   7.2647   7.9488

     occupation numbers 
     1.0000   1.0000   1.0000   1.0000   0.0000   0.0000   0.0000   0.0000

          k = 0.0556 0.5774 0.0000 ( 13242 PWs)   bands (ev):

   -16.5834 -15.1776  -9.1070  -4.8860  -1.2817   3.4459   7.9383   8.0969

     occupation numbers 
     1.0000   1.0000   1.0000   1.0000   0.0000   0.0000   0.0000   0.0000

          k = 0.0833 0.1443 0.0000 ( 13243 PWs)   bands (ev):

   -20.7877  -9.0210  -7.5512  -6.8118   1.3726   2.0222   2.1640   3.1641

     occupation numbers 
     1.0000   1.0000   1.0000   1.0000   0.0000   0.0000   0.0000   0.0000

          k = 0.0833 0.1764 0.0000 ( 13225 PWs)   bands (ev):

   -20.6222  -8.8310  -8.0314  -7.0956   1.5979   2.2494   2.3937   3.3901

     occupation numbers 
     1.0000   1.0000   1.0000   1.0000   0.0000   0.0000   0.0000   0.0000

          k = 0.0833 0.2085 0.0000 ( 13213 PWs)   bands (ev):

   -20.4242  -8.6047  -8.5707  -7.3908   1.8680   2.5215   2.6693   3.6606

     occupation numbers 
     1.0000   1.0000   1.0000   1.0000   0.0000   0.0000   0.0000   0.0000

          k = 0.0833 0.2406 0.0000 ( 13190 PWs)   bands (ev):

   -20.1940  -9.1565  -8.3429  -7.6838   2.1829   2.8379   2.9907   3.9661

     occupation numbers 
     1.0000   1.0000   1.0000   1.0000   0.0000   0.0000   0.0000   0.0000

          k = 0.0833 0.2726 0.0000 ( 13187 PWs)   bands (ev):

   -19.9321  -9.7757  -8.0470  -7.9653   2.5424   3.1910   3.3581   3.5670

     occupation numbers 
     1.0000   1.0000   1.0000   1.0000   0.0000   0.0000   0.0000   0.0000

          k = 0.0833 0.3047 0.0000 ( 13208 PWs)   bands (ev):

   -19.6390 -10.4163  -8.2294  -7.7189   2.9430   2.9461   3.6195   3.7710

     occupation numbers 
     1.0000   1.0000   1.0000   1.0000   0.0000   0.0000   0.0000   0.0000

          k = 0.0833 0.3368 0.0000 ( 13223 PWs)   bands (ev):

   -19.3155 -11.0677  -8.4715  -7.3610   2.3243   3.3932   4.0670   4.2263

     occupation numbers 
     1.0000   1.0000   1.0000   1.0000   0.0000   0.0000   0.0000   0.0000

          k = 0.0833 0.3689 0.0000 ( 13233 PWs)   bands (ev):

   -18.9627 -11.7212  -8.6886  -6.9770   1.6932   3.8795   4.2447   4.5619

     occupation numbers 
     1.0000   1.0000   1.0000   1.0000   0.0000   0.0000   0.0000   0.0000

          k = 0.0833 0.4009 0.0000 ( 13239 PWs)   bands (ev):

   -18.5822 -12.3690  -8.8783  -6.5723   1.0643   4.1102   4.4356   5.1006

     occupation numbers 
     1.0000   1.0000   1.0000   1.0000   0.0000   0.0000   0.0000   0.0000

          k = 0.0833 0.4330 0.0000 ( 13237 PWs)   bands (ev):

   -18.1765 -13.0037  -9.0388  -6.1554   0.4517   4.0182   5.0068   5.6817

     occupation numbers 
     1.0000   1.0000   1.0000   1.0000   0.0000   0.0000   0.0000   0.0000

          k = 0.0833 0.4651 0.0000 ( 13236 PWs)   bands (ev):

   -17.7503 -13.6171  -9.1686  -5.7401  -0.1258   3.9378   5.6255   6.3032

     occupation numbers 
     1.0000   1.0000   1.0000   1.0000   0.0000   0.0000   0.0000   0.0000

          k = 0.0833 0.4972 0.0000 ( 13246 PWs)   bands (ev):

   -17.3136 -14.1964  -9.2668  -5.3506  -0.6403   3.8757   6.2850   6.9618

     occupation numbers 
     1.0000   1.0000   1.0000   1.0000   0.0000   0.0000   0.0000   0.0000

          k = 0.0833 0.5292 0.0000 ( 13256 PWs)   bands (ev):

   -16.8932 -14.7128  -9.3326  -5.0288  -1.0470   3.8336   6.9815   7.6497

     occupation numbers 
     1.0000   1.0000   1.0000   1.0000   0.0000   0.0000   0.0000   0.0000

          k = 0.0833 0.5613 0.0000 ( 13255 PWs)   bands (ev):

   -16.5785 -15.0758  -9.3657  -4.8381  -1.2806   3.8124   7.7062   8.3334

     occupation numbers 
     1.0000   1.0000   1.0000   1.0000   0.0000   0.0000   0.0000   0.0000

          k = 0.1111 0.1925 0.0000 ( 13224 PWs)   bands (ev):

   -20.4407  -8.6234  -8.4892  -7.4168   1.8456   2.4990   2.6463   3.6385

     occupation numbers 
     1.0000   1.0000   1.0000   1.0000   0.0000   0.0000   0.0000   0.0000

          k = 0.1111 0.2245 0.0000 ( 13186 PWs)   bands (ev):

   -20.2268  -8.9992  -8.3799  -7.7469   2.1381   2.7934   2.9449   3.9308

     occupation numbers 
     1.0000   1.0000   1.0000   1.0000   0.0000   0.0000   0.0000   0.0000

          k = 0.1111 0.2566 0.0000 ( 13185 PWs)   bands (ev):

   -19.9811  -9.5551  -8.1017  -8.0674   2.4752   3.1311   3.2893   3.6853

     occupation numbers 
     1.0000   1.0000   1.0000   1.0000   0.0000   0.0000   0.0000   0.0000

          k = 0.1111 0.2887 0.0000 ( 13181 PWs)   bands (ev):

   -19.7040 -10.1471  -8.3677  -7.7903   2.8568   3.1067   3.5240   3.6796

     occupation numbers 
     1.0000   1.0000   1.0000   1.0000   0.0000   0.0000   0.0000   0.0000

          k = 0.1111 0.3208 0.0000 ( 13218 PWs)   bands (ev):

   -19.3961 -10.7636  -8.6421  -7.4479   2.5152   3.2824   3.9496   4.1155

     occupation numbers 
     1.0000   1.0000   1.0000   1.0000   0.0000   0.0000   0.0000   0.0000

          k = 0.1111 0.3528 0.0000 ( 13232 PWs)   bands (ev):

   -19.0585 -11.3935  -8.8878  -7.0773   1.9059   3.7514   4.4218   4.5948

     occupation numbers 
     1.0000   1.0000   1.0000   1.0000   0.0000   0.0000   0.0000   0.0000

          k = 0.1111 0.3849 0.0000 ( 13243 PWs)   bands (ev):

   -18.6924 -12.0272  -9.1030  -6.6829   1.2913   4.2598   4.6644   4.9375

     occupation numbers 
     1.0000   1.0000   1.0000   1.0000   0.0000   0.0000   0.0000   0.0000

          k = 0.1111 0.4170 0.0000 ( 13244 PWs)   bands (ev):

   -18.2999 -12.6557  -9.2867  -6.2712   0.6835   4.5377   4.8368   5.4951

     occupation numbers 
     1.0000   1.0000   1.0000   1.0000   0.0000   0.0000   0.0000   0.0000

          k = 0.1111 0.4491 0.0000 ( 13254 PWs)   bands (ev):

   -17.8842 -13.2705  -9.4381  -5.8526   0.0977   4.4552   5.4270   6.0926

     occupation numbers 
     1.0000   1.0000   1.0000   1.0000   0.0000   0.0000   0.0000   0.0000

          k = 0.1111 0.4811 0.0000 ( 13252 PWs)   bands (ev):

   -17.4521 -13.8612  -9.5565  -5.4450  -0.4443   4.3841   6.0645   6.7262

     occupation numbers 
     1.0000   1.0000   1.0000   1.0000   0.0000   0.0000   0.0000   0.0000

          k = 0.1111 0.5132 0.0000 ( 13260 PWs)   bands (ev):

   -17.0193 -14.4091  -9.6414  -5.0800  -0.9076   4.3318   6.7405   7.3877

     occupation numbers 
     1.0000   1.0000   1.0000   1.0000   0.0000   0.0000   0.0000   0.0000

          k = 0.1111 0.5453 0.0000 ( 13263 PWs)   bands (ev):

   -16.6337 -14.8645  -9.6924  -4.8115  -1.2361   4.2999   7.4488   8.0521

     occupation numbers 
     1.0000   1.0000   1.0000   1.0000   0.0000   0.0000   0.0000   0.0000

          k = 0.1111 0.5774 0.0000 ( 13248 PWs)   bands (ev):

   -16.4494 -15.0722  -9.7095  -4.7094  -1.3583   4.2893   8.1010   8.2792

     occupation numbers 
     1.0000   1.0000   1.0000   1.0000   0.0000   0.0000   0.0000   0.0000

          k = 0.1389 0.2406 0.0000 ( 13174 PWs)   bands (ev):

   -19.9975  -9.4687  -8.1199  -8.1152   2.4528   3.1101   3.2664   3.7276

     occupation numbers 
     1.0000   1.0000   1.0000   1.0000   0.0000   0.0000   0.0000   0.0000

          k = 0.1389 0.2726 0.0000 ( 13198 PWs)   bands (ev):

   -19.7365  -9.9809  -8.4712  -7.8261   2.8121   3.1961   3.4724   3.6338

     occupation numbers 
     1.0000   1.0000   1.0000   1.0000   0.0000   0.0000   0.0000   0.0000

          k = 0.1389 0.3047 0.0000 ( 13209 PWs)   bands (ev):

   -19.4446 -10.5320  -8.7989  -7.5002   2.6378   3.2156   3.8778   4.0470

     occupation numbers 
     1.0000   1.0000   1.0000   1.0000   0.0000   0.0000   0.0000   0.0000

          k = 0.1389 0.3368 0.0000 ( 13230 PWs)   bands (ev):

   -19.1226 -11.1130  -9.0909  -7.1445   2.0591   3.6630   4.3272   4.5058

     occupation numbers 
     1.0000   1.0000   1.0000   1.0000   0.0000   0.0000   0.0000   0.0000

          k = 0.1389 0.3689 0.0000 ( 13237 PWs)   bands (ev):

   -18.7715 -11.7128  -9.3453  -6.7626   1.4689   4.1534   4.8194   5.0091

     occupation numbers 
     1.0000   1.0000   1.0000   1.0000   0.0000   0.0000   0.0000   0.0000

          k = 0.1389 0.4009 0.0000 ( 13238 PWs)   bands (ev):

   -18.3930 -12.3201  -9.5622  -6.3594   0.8771   4.6838   5.1820   5.3531

     occupation numbers 
     1.0000   1.0000   1.0000   1.0000   0.0000   0.0000   0.0000   0.0000

          k = 0.1389 0.4330 0.0000 ( 13250 PWs)   bands (ev):

   -17.9897 -12.9243  -9.7421  -5.9429   0.2957   5.0593   5.2849   5.9259

     occupation numbers 
     1.0000   1.0000   1.0000   1.0000   0.0000   0.0000   0.0000   0.0000

          k = 0.1389 0.4651 0.0000 ( 13258 PWs)   bands (ev):

   -17.5662 -13.5150  -9.8857  -5.5260  -0.2581   4.9900   5.8891   6.5332

     occupation numbers 
     1.0000   1.0000   1.0000   1.0000   0.0000   0.0000   0.0000   0.0000

          k = 0.1389 0.4972 0.0000 ( 13257 PWs)   bands (ev):

   -17.1323 -14.0777  -9.9931  -5.1320  -0.7580   4.9283   6.5429   7.1656

     occupation numbers 
     1.0000   1.0000   1.0000   1.0000   0.0000   0.0000   0.0000   0.0000

          k = 0.1389 0.5292 0.0000 ( 13265 PWs)   bands (ev):

   -16.7142 -14.5832 -10.0647  -4.8024  -1.1596   4.8859   7.2314   7.7973

     occupation numbers 
     1.0000   1.0000   1.0000   1.0000   0.0000   0.0000   0.0000   0.0000

          k = 0.1389 0.5613 0.0000 ( 13265 PWs)   bands (ev):

   -16.4001 -14.9415 -10.1004  -4.6042  -1.3943   4.8644   7.9397   8.3264

     occupation numbers 
     1.0000   1.0000   1.0000   1.0000   0.0000   0.0000   0.0000   0.0000

          k = 0.1667 0.2887 0.0000 ( 13196 PWs)   bands (ev):

   -19.4608 -10.4406  -8.8662  -7.5176   2.6803   3.1933   3.8535   4.0241

     occupation numbers 
     1.0000   1.0000   1.0000   1.0000   0.0000   0.0000   0.0000   0.0000

          k = 0.1667 0.3208 0.0000 ( 13226 PWs)   bands (ev):

   -19.1546 -10.9382  -9.2297  -7.1783   2.1398   3.6186   4.2793   4.4602

     occupation numbers 
     1.0000   1.0000   1.0000   1.0000   0.0000   0.0000   0.0000   0.0000

          k = 0.1667 0.3528 0.0000 ( 13233 PWs)   bands (ev):

   -18.8191 -11.4710  -9.5488  -6.8107   1.5828   4.0873   4.7477   4.9419

     occupation numbers 
     1.0000   1.0000   1.0000   1.0000   0.0000   0.0000   0.0000   0.0000

          k = 0.1667 0.3849 0.0000 ( 13243 PWs)   bands (ev):

   -18.4554 -12.0299  -9.8196  -6.4189   1.0172   4.5986   5.2572   5.4686

     occupation numbers 
     1.0000   1.0000   1.0000   1.0000   0.0000   0.0000   0.0000   0.0000

          k = 0.1667 0.4170 0.0000 ( 13262 PWs)   bands (ev):

   -18.0657 -12.6028 -10.0435  -6.0089   0.4526   5.1499   5.7754   5.8047

     occupation numbers 
     1.0000   1.0000   1.0000   1.0000   0.0000   0.0000   0.0000   0.0000

          k = 0.1667 0.4491 0.0000 ( 13254 PWs)   bands (ev):

   -17.6533 -13.1767 -10.2230  -5.5900  -0.0982   5.6416   5.7887   6.3849

     occupation numbers 
     1.0000   1.0000   1.0000   1.0000   0.0000   0.0000   0.0000   0.0000

          k = 0.1667 0.4811 0.0000 ( 13266 PWs)   bands (ev):

   -17.2248 -13.7377 -10.3605  -5.1787  -0.6156   5.5988   6.3912   6.9860

     occupation numbers 
     1.0000   1.0000   1.0000   1.0000   0.0000   0.0000   0.0000   0.0000

          k = 0.1667 0.5132 0.0000 ( 13263 PWs)   bands (ev):

   -16.7954 -14.2653 -10.4576  -4.8052  -1.0669   5.5469   7.0572   7.5785

     occupation numbers 
     1.0000   1.0000   1.0000   1.0000   0.0000   0.0000   0.0000   0.0000

          k = 0.1667 0.5453 0.0000 ( 13267 PWs)   bands (ev):

   -16.4114 -14.7095 -10.5156  -4.5247  -1.3949   5.5145   7.7493   8.0793

     occupation numbers 
     1.0000   1.0000   1.0000   1.0000   0.0000   0.0000   0.0000   0.0000

          k = 0.1667 0.5774 0.0000 ( 13260 PWs)   bands (ev):

   -16.2263 -14.9149 -10.5348  -4.4161  -1.5195   5.5036   8.2952   8.3530

     occupation numbers 
     1.0000   1.0000   1.0000   1.0000   0.0000   0.0000   0.0000   0.0000

          k = 0.1944 0.3368 0.0000 ( 13248 PWs)   bands (ev):

   -18.8349 -11.3749  -9.6329  -6.8268   1.6221   4.0651   4.7237   4.9191

     occupation numbers 
     1.0000   1.0000   1.0000   1.0000   0.0000   0.0000   0.0000   0.0000

          k = 0.1944 0.3689 0.0000 ( 13243 PWs)   bands (ev):

   -18.4867 -11.8475  -9.9879  -6.4489   1.0911   4.5547   5.2087   5.4237

     occupation numbers 
     1.0000   1.0000   1.0000   1.0000   0.0000   0.0000   0.0000   0.0000

          k = 0.1944 0.4009 0.0000 ( 13245 PWs)   bands (ev):

   -18.1115 -12.3531 -10.2849  -6.0490   0.5538   5.0861   5.7309   5.9733

     occupation numbers 
     1.0000   1.0000   1.0000   1.0000   0.0000   0.0000   0.0000   0.0000

          k = 0.1944 0.4330 0.0000 ( 13264 PWs)   bands (ev):

   -17.7121 -12.8812 -10.5234  -5.6340   0.0196   5.6564   6.2836   6.4195

     occupation numbers 
     1.0000   1.0000   1.0000   1.0000   0.0000   0.0000   0.0000   0.0000

          k = 0.1944 0.4651 0.0000 ( 13250 PWs)   bands (ev):

   -17.2930 -13.4168 -10.7075  -5.2153  -0.4979   6.2265   6.3796   6.8526

     occupation numbers 
     1.0000   1.0000   1.0000   1.0000   0.0000   0.0000   0.0000   0.0000

          k = 0.1944 0.4972 0.0000 ( 13250 PWs)   bands (ev):

   -16.8635 -13.9414 -10.8416  -4.8137  -0.9757   6.2564   6.9303   7.4027

     occupation numbers 
     1.0000   1.0000   1.0000   1.0000   0.0000   0.0000   0.0000   0.0000

          k = 0.1944 0.5292 0.0000 ( 13259 PWs)   bands (ev):

   -16.4486 -14.4232 -10.9291  -4.4695  -1.3719   6.2149   7.5997   7.8529

     occupation numbers 
     1.0000   1.0000   1.0000   1.0000   0.0000   0.0000   0.0000   0.0000

          k = 0.1944 0.5613 0.0000 ( 13249 PWs)   bands (ev):

   -16.1334 -14.7728 -10.9724  -4.2560  -1.6117   6.1930   8.0944   8.2701

     occupation numbers 
     1.0000   1.0000   1.0000   1.0000   0.0000   0.0000   0.0000   0.0000

          k = 0.2222 0.3849 0.0000 ( 13242 PWs)   bands (ev):

   -18.1269 -12.2533 -10.3827  -6.0625   0.5889   5.0642   5.7060   5.9510

     occupation numbers 
     1.0000   1.0000   1.0000   1.0000   0.0000   0.0000   0.0000   0.0000

          k = 0.2222 0.4170 0.0000 ( 13255 PWs)   bands (ev):

   -17.7417 -12.6940 -10.7149  -5.6564   0.0823   5.6143   6.2321   6.5232

     occupation numbers 
     1.0000   1.0000   1.0000   1.0000   0.0000   0.0000   0.0000   0.0000

          k = 0.2222 0.4491 0.0000 ( 13250 PWs)   bands (ev):

   -17.3346 -13.1652 -10.9774  -5.2386  -0.4200   6.2012   6.7698   7.0801

     occupation numbers 
     1.0000   1.0000   1.0000   1.0000   0.0000   0.0000   0.0000   0.0000

          k = 0.2222 0.4811 0.0000 ( 13256 PWs)   bands (ev):

   -16.9117 -13.6524 -11.1728  -4.8225  -0.9032   6.8000   7.0391   7.2779

     occupation numbers 
     1.0000   1.0000   1.0000   1.0000   0.0000   0.0000   0.0000   0.0000

          k = 0.2222 0.5132 0.0000 ( 13253 PWs)   bands (ev):

   -16.4871 -14.1313 -11.3068  -4.4348  -1.3399   6.9331   7.4998   7.6727

     occupation numbers 
     1.0000   1.0000   1.0000   1.0000   0.0000   0.0000   0.0000   0.0000

          k = 0.2222 0.5453 0.0000 ( 13246 PWs)   bands (ev):

   -16.1037 -14.5507 -11.3850  -4.1310  -1.6735   6.9042   7.8836   8.1507

     occupation numbers 
     1.0000   1.0000   1.0000   1.0000   0.0000   0.0000   0.0000   0.0000

          k = 0.2222 0.5774 0.0000 ( 13260 PWs)   bands (ev):

   -15.9145 -14.7524 -11.4106  -4.0081  -1.8064   6.8933   7.9419   8.6454

     occupation numbers 
     1.0000   1.0000   1.0000   1.0000   0.0000   0.0000   0.0000   0.0000

          k = 0.2500 0.4330 0.0000 ( 13260 PWs)   bands (ev):

   -17.3486 -13.0641 -11.0851  -5.2466  -0.3927   6.1807   6.7417   7.1178

     occupation numbers 
     1.0000   1.0000   1.0000   1.0000   0.0000   0.0000   0.0000   0.0000

          k = 0.2500 0.4651 0.0000 ( 13256 PWs)   bands (ev):

   -16.9365 -13.4677 -11.3794  -4.8279  -0.8631   6.7796   7.2128   7.7157

     occupation numbers 
     1.0000   1.0000   1.0000   1.0000   0.0000   0.0000   0.0000   0.0000

          k = 0.2500 0.4972 0.0000 ( 13263 PWs)   bands (ev):

   -16.5141 -13.8954 -11.5930  -4.4162  -1.3135   7.3840   7.5564   7.6943

     occupation numbers 
     1.0000   1.0000   1.0000   1.0000   0.0000   0.0000   0.0000   0.0000

          k = 0.2500 0.5292 0.0000 ( 13260 PWs)   bands (ev):

   -16.1028 -14.3176 -11.7300  -4.0460  -1.7096   7.5898   7.7217   8.0795

     occupation numbers 
     1.0000   1.0000   1.0000   1.0000   0.0000   0.0000   0.0000   0.0000

          k = 0.2500 0.5613 0.0000 ( 13266 PWs)   bands (ev):

   -15.7809 -14.6475 -11.7966  -3.7983  -1.9703   7.5770   7.7724   8.6397

     occupation numbers 
     1.0000   1.0000   1.0000   1.0000   0.0000   0.0000   0.0000   0.0000

          k = 0.2778 0.4811 0.0000 ( 13262 PWs)   bands (ev):

   -16.5236 -13.7998 -11.7052  -4.4105  -1.3035   7.3812   7.5161   8.1576

     occupation numbers 
     1.0000   1.0000   1.0000   1.0000   0.0000   0.0000   0.0000   0.0000

          k = 0.2778 0.5132 0.0000 ( 13270 PWs)   bands (ev):

   -16.1074 -14.1603 -11.9395  -4.0032  -1.7258   7.6349   7.9650   8.2495

     occupation numbers 
     1.0000   1.0000   1.0000   1.0000   0.0000   0.0000   0.0000   0.0000

          k = 0.2778 0.5453 0.0000 ( 13272 PWs)   bands (ev):

   -15.7211 -14.5164 -12.0782  -3.6513  -2.0862   7.6530   8.1721   8.5873

     occupation numbers 
     1.0000   1.0000   1.0000   1.0000   0.0000   0.0000   0.0000   0.0000

          k = 0.2778 0.5774 0.0000 ( 13284 PWs)   bands (ev):

   -15.5147 -14.7135 -12.1238  -3.4881  -2.2521   7.6508   8.1753   8.8572

     occupation numbers 
     1.0000   1.0000   1.0000   1.0000   0.0000   0.0000   0.0000   0.0000

          k = 0.3056 0.5292 0.0000 ( 13282 PWs)   bands (ev):

   -15.7055 -14.4555 -12.1852  -3.5972  -2.1293   7.6107   8.4832   8.5445

     occupation numbers 
     1.0000   1.0000   1.0000   1.0000   0.0000   0.0000   0.0000   0.0000

          k = 0.3056 0.5613 0.0000 ( 13276 PWs)   bands (ev):

   -15.3569 -14.7479 -12.3117  -3.2548  -2.4699   7.5791   8.6063   8.8288

     occupation numbers 
     1.0000   1.0000   1.0000   1.0000  -0.0000   0.0000   0.0000   0.0000

          k = 0.3333 0.5774 0.0000 ( 13284 PWs)   bands (ev):

   -15.0279 -15.0279 -12.3945  -2.8600  -2.8600   7.5501   8.8215   8.8215

     occupation numbers 
     1.0000   1.0000   1.0000   1.0000   0.0000   0.0000   0.0000   0.0000

     the Fermi energy is    -2.8600 ev
     (compare with:    -2.8548 eV, computed in scf)

     Writing output data file ./tmp/graphene1.save/

     init_run     :      1.54s CPU      2.04s WALL (       1 calls)
     electrons    :    693.47s CPU    751.44s WALL (       1 calls)

     Called by init_run:
     wfcinit      :      0.00s CPU      0.00s WALL (       1 calls)
     wfcinit:atom :      0.31s CPU      0.38s WALL (     127 calls)
     wfcinit:wfcr :     25.54s CPU     27.75s WALL (     127 calls)
     potinit      :      0.39s CPU      0.69s WALL (       1 calls)
     hinit0       :      0.69s CPU      0.71s WALL (       1 calls)

     Called by electrons:
     c_bands      :    693.43s CPU    751.39s WALL (       1 calls)
     v_of_rho     :      0.28s CPU      0.34s WALL (       1 calls)
     v_h          :      0.02s CPU      0.02s WALL (       1 calls)
     v_xc         :      0.26s CPU      0.32s WALL (       1 calls)
     newd         :      0.12s CPU      0.15s WALL (       1 calls)
     PAW_pot      :      0.09s CPU      0.11s WALL (       1 calls)

     Called by c_bands:
     init_us_2    :      0.33s CPU      0.41s WALL (     127 calls)
     cegterg      :    662.96s CPU    710.99s WALL (     345 calls)

     Called by sum_band:

     Called by *egterg:
     cdiaghg      :      1.45s CPU      1.53s WALL (    5854 calls)
     cegterg:over :     32.62s CPU     34.84s WALL (    5727 calls)
     cegterg:upda :     19.19s CPU     20.30s WALL (    5727 calls)
     cegterg:last :     50.46s CPU     53.32s WALL (    2845 calls)
     h_psi        :    551.48s CPU    593.36s WALL (    6199 calls)
     s_psi        :     19.38s CPU     20.57s WALL (    6199 calls)
     g_psi        :      2.25s CPU      2.35s WALL (    5727 calls)

     Called by h_psi:
     h_psi:calbec :     21.73s CPU     23.58s WALL (    6199 calls)
     vloc_psi     :    508.41s CPU    547.09s WALL (    6199 calls)
     add_vuspsi   :     19.53s CPU     20.79s WALL (    6199 calls)

     General routines
     calbec       :     21.65s CPU     23.53s WALL (    6199 calls)
     fft          :      0.19s CPU      0.22s WALL (      12 calls)
     fftw         :    434.02s CPU    467.84s WALL (   48394 calls)
     davcio       :      0.15s CPU     10.42s WALL (     254 calls)

     Parallel routines
     fft_scatt_xy :     72.55s CPU     77.36s WALL (   48406 calls)
     fft_scatt_yz :     73.26s CPU     82.00s WALL (   48406 calls)

     PAW routines
     PAW_pot      :      0.09s CPU      0.11s WALL (       1 calls)

     PWSCF        :  11m37.63s CPU  12m42.32s WALL


   This run was terminated on:  20:15:47  28Aug2023            

=------------------------------------------------------------------------------=
   JOB DONE.
=------------------------------------------------------------------------------=
