
     Program PROJWFC v.6.7MaX starts on 28Aug2023 at 22:13:57 

     This program is part of the open-source Quantum ESPRESSO suite
     for quantum simulation of materials; please cite
         "P. Giannozzi et al., J. Phys.:Condens. Matter 21 395502 (2009);
         "P. Giannozzi et al., J. Phys.:Condens. Matter 29 465901 (2017);
          URL http://www.quantum-espresso.org", 
     in publications or presentations arising from this work. More details at
     http://www.quantum-espresso.org/quote

     Parallel version (MPI), running on     1 processors

     MPI processes distributed on     1 nodes

     Reading xml data from directory:

     ./tmp/graphene1.save/
     file C.pbe-n-kjpaw_psl.1.0.0.UPF: wavefunction(s)  2S 2P renormalized

     IMPORTANT: XC functional enforced from input :
     Exchange-correlation= PBE
                           (   1   4   3   4   0   0   0)
     Any further DFT definition will be discarded
     Please, verify this is what you really want


     G-vector sticks info
     --------------------
     sticks:   dense  smooth     PW     G-vecs:    dense   smooth      PW
     Sum         661     661    199               105985   105985   17093


     Check: negative core charge=   -0.000002

     negative rho (up, down):  1.210E-04 0.000E+00

     Gaussian broadening (read from input): ngauss,degauss=   0    0.010000


     Calling projwave .... 

  Problem Sizes 
  natomwfc =            8
  nbnd     =            8
  nkstot   =          127
  npwx     =        13284
  nkb      =           16


     Atomic states used for projection
     (read from pseudopotential files):

     state #   1: atom   1 (C  ), wfc  1 (l=0 m= 1)
     state #   2: atom   1 (C  ), wfc  2 (l=1 m= 1)
     state #   3: atom   1 (C  ), wfc  2 (l=1 m= 2)
     state #   4: atom   1 (C  ), wfc  2 (l=1 m= 3)
     state #   5: atom   2 (C  ), wfc  1 (l=0 m= 1)
     state #   6: atom   2 (C  ), wfc  2 (l=1 m= 1)
     state #   7: atom   2 (C  ), wfc  2 (l=1 m= 2)
     state #   8: atom   2 (C  ), wfc  2 (l=1 m= 3)

 k =   0.0000000000  0.0000000000  0.0000000000
==== e(   1) =   -21.23644 eV ==== 
     psi = 0.493*[#   1]+0.493*[#   5]
    |psi|^2 = 0.986
==== e(   2) =    -9.53909 eV ==== 
     psi = 0.477*[#   2]+0.477*[#   6]
    |psi|^2 = 0.954
==== e(   3) =    -5.94054 eV ==== 
     psi = 0.249*[#   3]+0.249*[#   4]+0.249*[#   7]+0.249*[#   8]
    |psi|^2 = 0.997
==== e(   4) =    -5.94054 eV ==== 
     psi = 0.249*[#   3]+0.249*[#   4]+0.249*[#   7]+0.249*[#   8]
    |psi|^2 = 0.997
==== e(   5) =     0.76395 eV ==== 
     psi = 0.003*[#   1]+0.003*[#   5]
    |psi|^2 = 0.005
==== e(   6) =     1.40800 eV ==== 
     psi = 0.007*[#   2]+0.007*[#   6]
    |psi|^2 = 0.014
==== e(   7) =     1.54387 eV ==== 

    |psi|^2 = 0.001
==== e(   8) =     2.55256 eV ==== 
     psi = 0.006*[#   2]+0.006*[#   6]
    |psi|^2 = 0.013

 k =   0.0000000000  0.0320750150  0.0000000000
==== e(   1) =   -21.21977 eV ==== 
     psi = 0.490*[#   1]+0.490*[#   5]+0.001*[#   3]+0.001*[#   4]+0.001*[#   7]
          +0.001*[#   8]
    |psi|^2 = 0.986
==== e(   2) =    -9.51977 eV ==== 
     psi = 0.477*[#   2]+0.477*[#   6]
    |psi|^2 = 0.954
==== e(   3) =    -6.01326 eV ==== 
     psi = 0.248*[#   3]+0.248*[#   4]+0.248*[#   7]+0.248*[#   8]+0.003*[#   1]
          +0.003*[#   5]
    |psi|^2 = 0.997
==== e(   4) =    -5.97469 eV ==== 
     psi = 0.249*[#   3]+0.249*[#   4]+0.249*[#   7]+0.249*[#   8]
    |psi|^2 = 0.997
==== e(   5) =     0.78650 eV ==== 
     psi = 0.002*[#   1]+0.002*[#   5]
    |psi|^2 = 0.007
==== e(   6) =     1.43077 eV ==== 
     psi = 0.007*[#   2]+0.007*[#   6]
    |psi|^2 = 0.014
==== e(   7) =     1.56683 eV ==== 

    |psi|^2 = 0.001
==== e(   8) =     2.57524 eV ==== 
     psi = 0.006*[#   2]+0.006*[#   6]
    |psi|^2 = 0.012

 k =   0.0000000000  0.0641500299  0.0000000000
==== e(   1) =   -21.16978 eV ==== 
     psi = 0.481*[#   1]+0.481*[#   5]+0.006*[#   3]+0.006*[#   4]+0.006*[#   7]
          +0.006*[#   8]
    |psi|^2 = 0.986
==== e(   2) =    -9.46186 eV ==== 
     psi = 0.478*[#   2]+0.478*[#   6]
    |psi|^2 = 0.956
==== e(   3) =    -6.22565 eV ==== 
     psi = 0.244*[#   3]+0.244*[#   4]+0.244*[#   7]+0.244*[#   8]+0.010*[#   1]
          +0.010*[#   5]
    |psi|^2 = 0.997
==== e(   4) =    -6.07401 eV ==== 
     psi = 0.249*[#   3]+0.249*[#   4]+0.249*[#   7]+0.249*[#   8]
    |psi|^2 = 0.997
==== e(   5) =     0.85415 eV ==== 
     psi = 0.002*[#   1]+0.002*[#   5]+0.002*[#   3]+0.002*[#   4]+0.002*[#   7]
          +0.002*[#   8]
    |psi|^2 = 0.010
==== e(   6) =     1.49908 eV ==== 
     psi = 0.007*[#   2]+0.007*[#   6]
    |psi|^2 = 0.014
==== e(   7) =     1.63574 eV ==== 

    |psi|^2 = 0.001
==== e(   8) =     2.64326 eV ==== 
     psi = 0.006*[#   2]+0.006*[#   6]
    |psi|^2 = 0.012

 k =   0.0000000000  0.0962250449  0.0000000000
==== e(   1) =   -21.08654 eV ==== 
     psi = 0.468*[#   1]+0.468*[#   5]+0.012*[#   3]+0.012*[#   4]+0.012*[#   7]
          +0.012*[#   8]
    |psi|^2 = 0.986
==== e(   2) =    -9.36555 eV ==== 
     psi = 0.479*[#   2]+0.479*[#   6]
    |psi|^2 = 0.958
==== e(   3) =    -6.56227 eV ==== 
     psi = 0.239*[#   3]+0.239*[#   4]+0.239*[#   7]+0.239*[#   8]+0.020*[#   1]
          +0.020*[#   5]
    |psi|^2 = 0.997
==== e(   4) =    -6.22993 eV ==== 
     psi = 0.249*[#   3]+0.249*[#   4]+0.249*[#   7]+0.249*[#   8]
    |psi|^2 = 0.997
==== e(   5) =     0.96688 eV ==== 
     psi = 0.003*[#   3]+0.003*[#   4]+0.003*[#   7]+0.003*[#   8]+0.001*[#   1]
          +0.001*[#   5]
    |psi|^2 = 0.015
==== e(   6) =     1.61289 eV ==== 
     psi = 0.007*[#   2]+0.007*[#   6]
    |psi|^2 = 0.013
==== e(   7) =     1.75057 eV ==== 

    |psi|^2 = 0.002
==== e(   8) =     2.75659 eV ==== 
     psi = 0.006*[#   2]+0.006*[#   6]
    |psi|^2 = 0.011

 k =   0.0000000000  0.1283000598  0.0000000000
==== e(   1) =   -20.97016 eV ==== 
     psi = 0.452*[#   1]+0.452*[#   5]+0.020*[#   3]+0.020*[#   4]+0.020*[#   7]
          +0.020*[#   8]
    |psi|^2 = 0.985
==== e(   2) =    -9.23115 eV ==== 
     psi = 0.480*[#   2]+0.480*[#   6]
    |psi|^2 = 0.961
==== e(   3) =    -7.00220 eV ==== 
     psi = 0.232*[#   3]+0.232*[#   4]+0.232*[#   7]+0.232*[#   8]+0.034*[#   1]
          +0.034*[#   5]
    |psi|^2 = 0.997
==== e(   4) =    -6.43047 eV ==== 
     psi = 0.249*[#   3]+0.249*[#   4]+0.249*[#   7]+0.249*[#   8]
    |psi|^2 = 0.997
==== e(   5) =     1.12467 eV ==== 
     psi = 0.005*[#   3]+0.005*[#   4]+0.005*[#   7]+0.005*[#   8]
    |psi|^2 = 0.021
==== e(   6) =     1.77215 eV ==== 
     psi = 0.006*[#   2]+0.006*[#   6]
    |psi|^2 = 0.012
==== e(   7) =     1.91134 eV ==== 

    |psi|^2 = 0.003
==== e(   8) =     2.91513 eV ==== 
     psi = 0.005*[#   2]+0.005*[#   6]
    |psi|^2 = 0.011

 k =   0.0000000000  0.1603750748  0.0000000000
==== e(   1) =   -20.82082 eV ==== 
     psi = 0.434*[#   1]+0.434*[#   5]+0.029*[#   3]+0.029*[#   4]+0.029*[#   7]
          +0.029*[#   8]
    |psi|^2 = 0.985
==== e(   2) =    -9.05912 eV ==== 
     psi = 0.482*[#   2]+0.482*[#   6]
    |psi|^2 = 0.964
==== e(   3) =    -7.52334 eV ==== 
     psi = 0.225*[#   3]+0.225*[#   4]+0.225*[#   7]+0.225*[#   8]+0.048*[#   1]
          +0.048*[#   5]
    |psi|^2 = 0.996
==== e(   4) =    -6.66257 eV ==== 
     psi = 0.249*[#   3]+0.249*[#   4]+0.249*[#   7]+0.249*[#   8]
    |psi|^2 = 0.997
==== e(   5) =     1.32748 eV ==== 
     psi = 0.006*[#   3]+0.006*[#   4]+0.006*[#   7]+0.006*[#   8]
    |psi|^2 = 0.025
==== e(   6) =     1.97674 eV ==== 
     psi = 0.006*[#   2]+0.006*[#   6]
    |psi|^2 = 0.011
==== e(   7) =     2.11804 eV ==== 

    |psi|^2 = 0.003
==== e(   8) =     3.11874 eV ==== 
     psi = 0.005*[#   2]+0.005*[#   6]
    |psi|^2 = 0.010

 k =   0.0000000000  0.1924500897  0.0000000000
==== e(   1) =   -20.63872 eV ==== 
     psi = 0.415*[#   1]+0.415*[#   5]+0.039*[#   3]+0.039*[#   4]+0.039*[#   7]
          +0.039*[#   8]
    |psi|^2 = 0.984
==== e(   2) =    -8.85012 eV ==== 
     psi = 0.484*[#   2]+0.484*[#   6]
    |psi|^2 = 0.968
==== e(   3) =    -8.10526 eV ==== 
     psi = 0.217*[#   3]+0.217*[#   4]+0.217*[#   7]+0.217*[#   8]+0.063*[#   1]
          +0.063*[#   5]
    |psi|^2 = 0.995
==== e(   4) =    -6.91370 eV ==== 
     psi = 0.249*[#   3]+0.249*[#   4]+0.249*[#   7]+0.249*[#   8]
    |psi|^2 = 0.997
==== e(   5) =     1.57522 eV ==== 
     psi = 0.007*[#   3]+0.007*[#   4]+0.007*[#   7]+0.007*[#   8]
    |psi|^2 = 0.029
==== e(   6) =     2.22646 eV ==== 
     psi = 0.005*[#   2]+0.005*[#   6]
    |psi|^2 = 0.010
==== e(   7) =     2.37066 eV ==== 

    |psi|^2 = 0.003
==== e(   8) =     3.36701 eV ==== 
     psi = 0.004*[#   2]+0.004*[#   6]
    |psi|^2 = 0.009

 k =   0.0000000000  0.2245251047  0.0000000000
==== e(   1) =   -20.42418 eV ==== 
     psi = 0.396*[#   1]+0.396*[#   5]+0.048*[#   3]+0.048*[#   4]+0.048*[#   7]
          +0.048*[#   8]
    |psi|^2 = 0.984
==== e(   2) =    -8.73040 eV ==== 
     psi = 0.210*[#   3]+0.210*[#   4]+0.210*[#   7]+0.210*[#   8]+0.077*[#   1]
          +0.077*[#   5]
    |psi|^2 = 0.994
==== e(   3) =    -8.60503 eV ==== 
     psi = 0.486*[#   2]+0.486*[#   6]
    |psi|^2 = 0.973
==== e(   4) =    -7.17286 eV ==== 
     psi = 0.249*[#   3]+0.249*[#   4]+0.249*[#   7]+0.249*[#   8]
    |psi|^2 = 0.997
==== e(   5) =     1.86777 eV ==== 
     psi = 0.007*[#   3]+0.007*[#   4]+0.007*[#   7]+0.007*[#   8]
    |psi|^2 = 0.030
==== e(   6) =     2.52081 eV ==== 
     psi = 0.005*[#   2]+0.005*[#   6]
    |psi|^2 = 0.010
==== e(   7) =     2.66915 eV ==== 

    |psi|^2 = 0.003
==== e(   8) =     3.65835 eV ==== 
     psi = 0.005*[#   2]+0.005*[#   6]
    |psi|^2 = 0.010

 k =   0.0000000000  0.2566001196  0.0000000000
==== e(   1) =   -20.17757 eV ==== 
     psi = 0.378*[#   1]+0.378*[#   5]+0.057*[#   3]+0.057*[#   4]+0.057*[#   7]
          +0.057*[#   8]
    |psi|^2 = 0.984
==== e(   2) =    -9.38427 eV ==== 
     psi = 0.203*[#   3]+0.203*[#   4]+0.203*[#   7]+0.203*[#   8]+0.091*[#   1]
          +0.091*[#   5]
    |psi|^2 = 0.994
==== e(   3) =    -8.32501 eV ==== 
     psi = 0.489*[#   2]+0.489*[#   6]
    |psi|^2 = 0.977
==== e(   4) =    -7.43085 eV ==== 
     psi = 0.249*[#   3]+0.249*[#   4]+0.249*[#   7]+0.249*[#   8]
    |psi|^2 = 0.997
==== e(   5) =     2.20496 eV ==== 
     psi = 0.007*[#   3]+0.007*[#   4]+0.007*[#   7]+0.007*[#   8]
    |psi|^2 = 0.029
==== e(   6) =     2.85789 eV ==== 
     psi = 0.006*[#   2]+0.006*[#   6]
    |psi|^2 = 0.011
==== e(   7) =     3.01346 eV ==== 

    |psi|^2 = 0.003
==== e(   8) =     3.94756 eV ==== 
     psi = 0.147*[#   2]+0.147*[#   6]
    |psi|^2 = 0.293

 k =   0.0000000000  0.2886751346  0.0000000000
==== e(   1) =   -19.89938 eV ==== 
     psi = 0.362*[#   1]+0.362*[#   5]+0.065*[#   3]+0.065*[#   4]+0.065*[#   7]
          +0.065*[#   8]
    |psi|^2 = 0.984
==== e(   2) =   -10.05510 eV ==== 
     psi = 0.196*[#   3]+0.196*[#   4]+0.196*[#   7]+0.196*[#   8]+0.104*[#   1]
          +0.104*[#   5]
    |psi|^2 = 0.993
==== e(   3) =    -8.01167 eV ==== 
     psi = 0.491*[#   2]+0.491*[#   6]
    |psi|^2 = 0.981
==== e(   4) =    -7.68021 eV ==== 
     psi = 0.249*[#   3]+0.249*[#   4]+0.249*[#   7]+0.249*[#   8]
    |psi|^2 = 0.997
==== e(   5) =     2.58642 eV ==== 
     psi = 0.006*[#   3]+0.006*[#   4]+0.006*[#   7]+0.006*[#   8]
    |psi|^2 = 0.025
==== e(   6) =     3.20539 eV ==== 
     psi = 0.076*[#   2]+0.076*[#   6]
    |psi|^2 = 0.153
==== e(   7) =     3.40316 eV ==== 

    |psi|^2 = 0.002
==== e(   8) =     3.47788 eV ==== 
     psi = 0.403*[#   2]+0.403*[#   6]
    |psi|^2 = 0.805

 k =   0.0000000000  0.3207501495  0.0000000000
==== e(   1) =   -19.59027 eV ==== 
     psi = 0.346*[#   1]+0.346*[#   5]+0.073*[#   3]+0.073*[#   4]+0.073*[#   7]
          +0.073*[#   8]
    |psi|^2 = 0.983
==== e(   2) =   -10.73331 eV ==== 
     psi = 0.190*[#   3]+0.190*[#   4]+0.190*[#   7]+0.190*[#   8]+0.116*[#   1]
          +0.116*[#   5]
    |psi|^2 = 0.992
==== e(   3) =    -7.91501 eV ==== 
     psi = 0.249*[#   3]+0.249*[#   4]+0.249*[#   7]+0.249*[#   8]
    |psi|^2 = 0.997
==== e(   4) =    -7.66720 eV ==== 
     psi = 0.493*[#   2]+0.493*[#   6]
    |psi|^2 = 0.985
==== e(   5) =     2.77948 eV ==== 
     psi = 0.469*[#   2]+0.469*[#   6]
    |psi|^2 = 0.939
==== e(   6) =     3.01108 eV ==== 
     psi = 0.004*[#   3]+0.004*[#   4]+0.004*[#   7]+0.004*[#   8]
    |psi|^2 = 0.018
==== e(   7) =     3.69586 eV ==== 
     psi = 0.012*[#   2]+0.012*[#   6]
    |psi|^2 = 0.024
==== e(   8) =     3.76242 eV ==== 
     psi = 0.228*[#   1]+0.228*[#   5]+0.084*[#   3]+0.084*[#   4]+0.084*[#   7]
          +0.084*[#   8]
    |psi|^2 = 0.792

 k =   0.0000000000  0.3528251645  0.0000000000
==== e(   1) =   -19.25112 eV ==== 
     psi = 0.333*[#   1]+0.333*[#   5]+0.080*[#   3]+0.080*[#   4]+0.080*[#   7]
          +0.080*[#   8]
    |psi|^2 = 0.984
==== e(   2) =   -11.41101 eV ==== 
     psi = 0.184*[#   3]+0.184*[#   4]+0.184*[#   7]+0.184*[#   8]+0.127*[#   1]
          +0.127*[#   5]
    |psi|^2 = 0.991
==== e(   3) =    -8.13060 eV ==== 
     psi = 0.249*[#   3]+0.249*[#   4]+0.249*[#   7]+0.249*[#   8]
    |psi|^2 = 0.997
==== e(   4) =    -7.29469 eV ==== 
     psi = 0.494*[#   2]+0.494*[#   6]
    |psi|^2 = 0.989
==== e(   5) =     2.13239 eV ==== 
     psi = 0.476*[#   2]+0.476*[#   6]
    |psi|^2 = 0.951
==== e(   6) =     3.46527 eV ==== 
     psi = 0.027*[#   1]+0.027*[#   5]
    |psi|^2 = 0.056
==== e(   7) =     3.65188 eV ==== 
     psi = 0.248*[#   1]+0.248*[#   5]+0.094*[#   3]+0.094*[#   4]+0.094*[#   7]
          +0.094*[#   8]
    |psi|^2 = 0.872
==== e(   8) =     4.16483 eV ==== 
     psi = 0.005*[#   2]+0.005*[#   6]
    |psi|^2 = 0.010

 k =   0.0000000000  0.3849001795  0.0000000000
==== e(   1) =   -18.88322 eV ==== 
     psi = 0.320*[#   1]+0.320*[#   5]+0.086*[#   3]+0.086*[#   4]+0.086*[#   7]
          +0.086*[#   8]
    |psi|^2 = 0.984
==== e(   2) =   -12.08142 eV ==== 
     psi = 0.179*[#   3]+0.179*[#   4]+0.179*[#   7]+0.179*[#   8]+0.137*[#   1]
          +0.137*[#   5]
    |psi|^2 = 0.990
==== e(   3) =    -8.32335 eV ==== 
     psi = 0.249*[#   3]+0.249*[#   4]+0.249*[#   7]+0.249*[#   8]
    |psi|^2 = 0.996
==== e(   4) =    -6.89868 eV ==== 
     psi = 0.496*[#   2]+0.496*[#   6]
    |psi|^2 = 0.992
==== e(   5) =     1.47958 eV ==== 
     psi = 0.477*[#   2]+0.477*[#   6]
    |psi|^2 = 0.954
==== e(   6) =     3.50065 eV ==== 
     psi = 0.285*[#   1]+0.285*[#   5]+0.075*[#   3]+0.075*[#   4]+0.075*[#   7]
          +0.075*[#   8]
    |psi|^2 = 0.869
==== e(   7) =     4.00834 eV ==== 
     psi = 0.012*[#   3]+0.012*[#   4]+0.012*[#   7]+0.012*[#   8]+0.006*[#   1]
          +0.006*[#   5]
    |psi|^2 = 0.060
==== e(   8) =     4.68264 eV ==== 
     psi = 0.003*[#   2]+0.003*[#   6]
    |psi|^2 = 0.006

 k =   0.0000000000  0.4169751944  0.0000000000
==== e(   1) =   -18.48852 eV ==== 
     psi = 0.310*[#   1]+0.310*[#   5]+0.091*[#   3]+0.091*[#   4]+0.091*[#   7]
          +0.091*[#   8]
    |psi|^2 = 0.985
==== e(   2) =   -12.73829 eV ==== 
     psi = 0.174*[#   3]+0.174*[#   4]+0.174*[#   7]+0.174*[#   8]+0.146*[#   1]
          +0.146*[#   5]
    |psi|^2 = 0.989
==== e(   3) =    -8.49044 eV ==== 
     psi = 0.249*[#   3]+0.249*[#   4]+0.249*[#   7]+0.249*[#   8]
    |psi|^2 = 0.996
==== e(   4) =    -6.48608 eV ==== 
     psi = 0.497*[#   2]+0.497*[#   6]
    |psi|^2 = 0.994
==== e(   5) =     0.83824 eV ==== 
     psi = 0.477*[#   2]+0.477*[#   6]
    |psi|^2 = 0.955
==== e(   6) =     3.39647 eV ==== 
     psi = 0.303*[#   1]+0.303*[#   5]+0.073*[#   3]+0.073*[#   4]+0.073*[#   7]
          +0.073*[#   8]
    |psi|^2 = 0.898
==== e(   7) =     4.56233 eV ==== 
     psi = 0.007*[#   3]+0.007*[#   4]+0.007*[#   7]+0.007*[#   8]+0.001*[#   1]
          +0.001*[#   5]
    |psi|^2 = 0.030
==== e(   8) =     5.24510 eV ==== 
     psi = 0.002*[#   2]+0.002*[#   6]
    |psi|^2 = 0.005

 k =   0.0000000000  0.4490502094  0.0000000000
==== e(   1) =   -18.07041 eV ==== 
     psi = 0.302*[#   1]+0.302*[#   5]+0.095*[#   3]+0.095*[#   4]+0.095*[#   7]
          +0.095*[#   8]
    |psi|^2 = 0.985
==== e(   2) =   -13.37493 eV ==== 
     psi = 0.171*[#   3]+0.171*[#   4]+0.171*[#   7]+0.171*[#   8]+0.153*[#   1]
          +0.153*[#   5]
    |psi|^2 = 0.988
==== e(   3) =    -8.62972 eV ==== 
     psi = 0.249*[#   3]+0.249*[#   4]+0.249*[#   7]+0.249*[#   8]
    |psi|^2 = 0.996
==== e(   4) =    -6.06804 eV ==== 
     psi = 0.498*[#   2]+0.498*[#   6]
    |psi|^2 = 0.995
==== e(   5) =     0.22555 eV ==== 
     psi = 0.478*[#   2]+0.478*[#   6]
    |psi|^2 = 0.956
==== e(   6) =     3.30648 eV ==== 
     psi = 0.314*[#   1]+0.314*[#   5]+0.069*[#   3]+0.069*[#   4]+0.069*[#   7]
          +0.069*[#   8]
    |psi|^2 = 0.906
==== e(   7) =     5.16181 eV ==== 
     psi = 0.005*[#   3]+0.005*[#   4]+0.005*[#   7]+0.005*[#   8]
    |psi|^2 = 0.020
==== e(   8) =     5.85075 eV ==== 
     psi = 0.002*[#   2]+0.002*[#   6]
    |psi|^2 = 0.004

 k =   0.0000000000  0.4811252243  0.0000000000
==== e(   1) =   -17.63556 eV ==== 
     psi = 0.298*[#   1]+0.298*[#   5]+0.098*[#   3]+0.098*[#   4]+0.098*[#   7]
          +0.098*[#   8]
    |psi|^2 = 0.987
==== e(   2) =   -13.98214 eV ==== 
     psi = 0.169*[#   3]+0.169*[#   4]+0.169*[#   7]+0.169*[#   8]+0.156*[#   1]
          +0.156*[#   5]
    |psi|^2 = 0.987
==== e(   3) =    -8.73958 eV ==== 
     psi = 0.249*[#   3]+0.249*[#   4]+0.249*[#   7]+0.249*[#   8]
    |psi|^2 = 0.996
==== e(   4) =    -5.66331 eV ==== 
     psi = 0.498*[#   2]+0.498*[#   6]
    |psi|^2 = 0.996
==== e(   5) =    -0.33515 eV ==== 
     psi = 0.478*[#   2]+0.478*[#   6]
    |psi|^2 = 0.957
==== e(   6) =     3.23462 eV ==== 
     psi = 0.323*[#   1]+0.323*[#   5]+0.066*[#   3]+0.066*[#   4]+0.066*[#   7]
          +0.066*[#   8]
    |psi|^2 = 0.910
==== e(   7) =     5.80341 eV ==== 
     psi = 0.003*[#   3]+0.003*[#   4]+0.003*[#   7]+0.003*[#   8]
    |psi|^2 = 0.013
==== e(   8) =     6.49807 eV ==== 
     psi = 0.002*[#   2]+0.002*[#   6]
    |psi|^2 = 0.003

 k =   0.0000000000  0.5132002393  0.0000000000
==== e(   1) =   -17.20004 eV ==== 
     psi = 0.300*[#   1]+0.300*[#   5]+0.097*[#   3]+0.097*[#   4]+0.097*[#   7]
          +0.097*[#   8]
    |psi|^2 = 0.989
==== e(   2) =   -14.54201 eV ==== 
     psi = 0.169*[#   3]+0.169*[#   4]+0.169*[#   7]+0.169*[#   8]+0.154*[#   1]
          +0.154*[#   5]
    |psi|^2 = 0.985
==== e(   3) =    -8.81883 eV ==== 
     psi = 0.249*[#   3]+0.249*[#   4]+0.249*[#   7]+0.249*[#   8]
    |psi|^2 = 0.996
==== e(   4) =    -5.30421 eV ==== 
     psi = 0.499*[#   2]+0.499*[#   6]
    |psi|^2 = 0.997
==== e(   5) =    -0.80808 eV ==== 
     psi = 0.479*[#   2]+0.479*[#   6]
    |psi|^2 = 0.958
==== e(   6) =     3.18243 eV ==== 
     psi = 0.329*[#   1]+0.329*[#   5]+0.063*[#   3]+0.063*[#   4]+0.063*[#   7]
          +0.063*[#   8]
    |psi|^2 = 0.912
==== e(   7) =     6.48497 eV ==== 
     psi = 0.002*[#   3]+0.002*[#   4]+0.002*[#   7]+0.002*[#   8]
    |psi|^2 = 0.010
==== e(   8) =     7.18461 eV ==== 
     psi = 0.002*[#   2]+0.002*[#   6]
    |psi|^2 = 0.004

 k =   0.0000000000  0.5452752542  0.0000000000
==== e(   1) =   -16.81260 eV ==== 
     psi = 0.313*[#   1]+0.313*[#   5]+0.092*[#   3]+0.092*[#   4]+0.092*[#   7]
          +0.092*[#   8]
    |psi|^2 = 0.992
==== e(   2) =   -15.00455 eV ==== 
     psi = 0.175*[#   3]+0.175*[#   4]+0.175*[#   7]+0.175*[#   8]+0.141*[#   1]
          +0.141*[#   5]
    |psi|^2 = 0.982
==== e(   3) =    -8.86669 eV ==== 
     psi = 0.249*[#   3]+0.249*[#   4]+0.249*[#   7]+0.249*[#   8]
    |psi|^2 = 0.996
==== e(   4) =    -5.04317 eV ==== 
     psi = 0.499*[#   2]+0.499*[#   6]
    |psi|^2 = 0.998
==== e(   5) =    -1.13837 eV ==== 
     psi = 0.479*[#   2]+0.479*[#   6]
    |psi|^2 = 0.958
==== e(   6) =     3.15080 eV ==== 
     psi = 0.333*[#   1]+0.333*[#   5]+0.062*[#   3]+0.062*[#   4]+0.062*[#   7]
          +0.062*[#   8]
    |psi|^2 = 0.913
==== e(   7) =     7.20279 eV ==== 
     psi = 0.001*[#   1]+0.001*[#   3]+0.001*[#   4]+0.001*[#   5]+0.001*[#   7]
          +0.001*[#   8]
    |psi|^2 = 0.008
==== e(   8) =     7.90452 eV ==== 
     psi = 0.002*[#   2]+0.002*[#   6]
    |psi|^2 = 0.005

 k =   0.0000000000 -0.5773502692  0.0000000000
==== e(   1) =   -16.62811 eV ==== 
     psi = 0.328*[#   1]+0.328*[#   5]+0.085*[#   3]+0.085*[#   4]+0.085*[#   7]
          +0.085*[#   8]
    |psi|^2 = 0.994
==== e(   2) =   -15.21415 eV ==== 
     psi = 0.182*[#   3]+0.182*[#   4]+0.182*[#   7]+0.182*[#   8]+0.126*[#   1]
          +0.126*[#   5]
    |psi|^2 = 0.980
==== e(   3) =    -8.88270 eV ==== 
     psi = 0.249*[#   3]+0.249*[#   4]+0.249*[#   7]+0.249*[#   8]
    |psi|^2 = 0.996
==== e(   4) =    -4.94502 eV ==== 
     psi = 0.499*[#   2]+0.499*[#   6]
    |psi|^2 = 0.998
==== e(   5) =    -1.25977 eV ==== 
     psi = 0.479*[#   2]+0.479*[#   6]
    |psi|^2 = 0.958
==== e(   6) =     3.14020 eV ==== 
     psi = 0.334*[#   1]+0.334*[#   5]+0.061*[#   3]+0.061*[#   4]+0.061*[#   7]
          +0.061*[#   8]
    |psi|^2 = 0.913
==== e(   7) =     7.88251 eV ==== 
     psi = 0.005*[#   1]+0.005*[#   5]
    |psi|^2 = 0.011
==== e(   8) =     8.03557 eV ==== 
     psi = 0.002*[#   3]+0.002*[#   4]+0.002*[#   7]+0.002*[#   8]
    |psi|^2 = 0.009

 k =   0.0277777778  0.0481125224  0.0000000000
==== e(   1) =   -21.18644 eV ==== 
     psi = 0.484*[#   1]+0.484*[#   5]+0.004*[#   3]+0.004*[#   4]+0.004*[#   7]
          +0.004*[#   8]
    |psi|^2 = 0.986
==== e(   2) =    -9.48115 eV ==== 
     psi = 0.478*[#   2]+0.478*[#   6]
    |psi|^2 = 0.955
==== e(   3) =    -6.15418 eV ==== 
     psi = 0.246*[#   3]+0.246*[#   4]+0.246*[#   7]+0.246*[#   8]+0.007*[#   1]
          +0.007*[#   5]
    |psi|^2 = 0.997
==== e(   4) =    -6.04306 eV ==== 
     psi = 0.249*[#   3]+0.249*[#   4]+0.249*[#   7]+0.249*[#   8]
    |psi|^2 = 0.997
==== e(   5) =     0.83160 eV ==== 
     psi = 0.002*[#   1]+0.002*[#   5]+0.001*[#   3]+0.001*[#   4]+0.001*[#   7]
          +0.001*[#   8]
    |psi|^2 = 0.009
==== e(   6) =     1.47631 eV ==== 
     psi = 0.007*[#   2]+0.007*[#   6]
    |psi|^2 = 0.014
==== e(   7) =     1.61277 eV ==== 

    |psi|^2 = 0.001
==== e(   8) =     2.62059 eV ==== 
     psi = 0.006*[#   2]+0.006*[#   6]
    |psi|^2 = 0.012

 k =   0.0277777778  0.0801875374  0.0000000000
==== e(   1) =   -21.11982 eV ==== 
     psi = 0.473*[#   1]+0.473*[#   5]+0.010*[#   3]+0.010*[#   4]+0.010*[#   7]
          +0.010*[#   8]
    |psi|^2 = 0.986
==== e(   2) =    -9.40404 eV ==== 
     psi = 0.478*[#   2]+0.478*[#   6]
    |psi|^2 = 0.957
==== e(   3) =    -6.42450 eV ==== 
     psi = 0.241*[#   3]+0.241*[#   4]+0.241*[#   7]+0.241*[#   8]+0.016*[#   1]
          +0.016*[#   5]
    |psi|^2 = 0.997
==== e(   4) =    -6.17490 eV ==== 
     psi = 0.249*[#   3]+0.249*[#   4]+0.249*[#   7]+0.249*[#   8]
    |psi|^2 = 0.997
==== e(   5) =     0.92179 eV ==== 
     psi = 0.003*[#   3]+0.003*[#   4]+0.003*[#   7]+0.003*[#   8]+0.001*[#   1]
          +0.001*[#   5]
    |psi|^2 = 0.013
==== e(   6) =     1.56738 eV ==== 
     psi = 0.007*[#   2]+0.007*[#   6]
    |psi|^2 = 0.013
==== e(   7) =     1.70464 eV ==== 

    |psi|^2 = 0.002
==== e(   8) =     2.71126 eV ==== 
     psi = 0.006*[#   2]+0.006*[#   6]
    |psi|^2 = 0.012

 k =   0.0277777778  0.1122625523  0.0000000000
==== e(   1) =   -21.02002 eV ==== 
     psi = 0.459*[#   1]+0.459*[#   5]+0.017*[#   3]+0.017*[#   4]+0.017*[#   7]
          +0.017*[#   8]
    |psi|^2 = 0.985
==== e(   2) =    -9.28868 eV ==== 
     psi = 0.480*[#   2]+0.480*[#   6]
    |psi|^2 = 0.959
==== e(   3) =    -6.80740 eV ==== 
     psi = 0.235*[#   3]+0.235*[#   4]+0.235*[#   7]+0.235*[#   8]+0.028*[#   1]
          +0.028*[#   5]
    |psi|^2 = 0.997
==== e(   4) =    -6.35860 eV ==== 
     psi = 0.249*[#   3]+0.249*[#   4]+0.249*[#   7]+0.249*[#   8]
    |psi|^2 = 0.997
==== e(   5) =     1.05706 eV ==== 
     psi = 0.004*[#   3]+0.004*[#   4]+0.004*[#   7]+0.004*[#   8]
    |psi|^2 = 0.019
==== e(   6) =     1.70391 eV ==== 
     psi = 0.006*[#   2]+0.006*[#   6]
    |psi|^2 = 0.013
==== e(   7) =     1.84244 eV ==== 

    |psi|^2 = 0.002
==== e(   8) =     2.84721 eV ==== 
     psi = 0.006*[#   2]+0.006*[#   6]
    |psi|^2 = 0.011

 k =   0.0277777778  0.1443375673  0.0000000000
==== e(   1) =   -20.88715 eV ==== 
     psi = 0.441*[#   1]+0.441*[#   5]+0.026*[#   3]+0.026*[#   4]+0.026*[#   7]
          +0.026*[#   8]
    |psi|^2 = 0.985
==== e(   2) =    -9.13546 eV ==== 
     psi = 0.481*[#   2]+0.481*[#   6]
    |psi|^2 = 0.963
==== e(   3) =    -7.28237 eV ==== 
     psi = 0.228*[#   3]+0.228*[#   4]+0.228*[#   7]+0.228*[#   8]+0.041*[#   1]
          +0.041*[#   5]
    |psi|^2 = 0.997
==== e(   4) =    -6.58065 eV ==== 
     psi = 0.249*[#   3]+0.249*[#   4]+0.249*[#   7]+0.249*[#   8]
    |psi|^2 = 0.997
==== e(   5) =     1.23736 eV ==== 
     psi = 0.006*[#   3]+0.006*[#   4]+0.006*[#   7]+0.006*[#   8]
    |psi|^2 = 0.024
==== e(   6) =     1.88585 eV ==== 
     psi = 0.006*[#   2]+0.006*[#   6]
    |psi|^2 = 0.012
==== e(   7) =     2.02618 eV ==== 

    |psi|^2 = 0.003
==== e(   8) =     3.02831 eV ==== 
     psi = 0.005*[#   2]+0.005*[#   6]
    |psi|^2 = 0.010

 k =   0.0277777778  0.1764125823  0.0000000000
==== e(   1) =   -20.72143 eV ==== 
     psi = 0.423*[#   1]+0.423*[#   5]+0.035*[#   3]+0.035*[#   4]+0.035*[#   7]
          +0.035*[#   8]
    |psi|^2 = 0.985
==== e(   2) =    -8.94493 eV ==== 
     psi = 0.483*[#   2]+0.483*[#   6]
    |psi|^2 = 0.966
==== e(   3) =    -7.82874 eV ==== 
     psi = 0.221*[#   3]+0.221*[#   4]+0.221*[#   7]+0.221*[#   8]+0.056*[#   1]
          +0.056*[#   5]
    |psi|^2 = 0.996
==== e(   4) =    -6.82764 eV ==== 
     psi = 0.249*[#   3]+0.249*[#   4]+0.249*[#   7]+0.249*[#   8]+0.001*[#   1]
          +0.001*[#   5]
    |psi|^2 = 0.997
==== e(   5) =     1.46265 eV ==== 
     psi = 0.007*[#   3]+0.007*[#   4]+0.007*[#   7]+0.007*[#   8]
    |psi|^2 = 0.028
==== e(   6) =     2.11303 eV ==== 
     psi = 0.005*[#   2]+0.005*[#   6]
    |psi|^2 = 0.011
==== e(   7) =     2.25584 eV ==== 

    |psi|^2 = 0.003
==== e(   8) =     3.25433 eV ==== 
     psi = 0.005*[#   2]+0.005*[#   6]
    |psi|^2 = 0.009

 k =   0.0277777778  0.2084875972  0.0000000000
==== e(   1) =   -20.52311 eV ==== 
     psi = 0.404*[#   1]+0.404*[#   5]+0.044*[#   3]+0.044*[#   4]+0.044*[#   7]
          +0.044*[#   8]
    |psi|^2 = 0.984
==== e(   2) =    -8.71784 eV ==== 
     psi = 0.485*[#   2]+0.485*[#   6]
    |psi|^2 = 0.971
==== e(   3) =    -8.42780 eV ==== 
     psi = 0.214*[#   3]+0.214*[#   4]+0.214*[#   7]+0.214*[#   8]+0.070*[#   1]
          +0.070*[#   5]
    |psi|^2 = 0.995
==== e(   4) =    -7.08751 eV ==== 
     psi = 0.249*[#   3]+0.249*[#   4]+0.249*[#   7]+0.249*[#   8]+0.001*[#   1]
          +0.001*[#   5]
    |psi|^2 = 0.997
==== e(   5) =     1.73281 eV ==== 
     psi = 0.007*[#   3]+0.007*[#   4]+0.007*[#   7]+0.007*[#   8]
    |psi|^2 = 0.030
==== e(   6) =     2.38516 eV ==== 
     psi = 0.005*[#   2]+0.005*[#   6]
    |psi|^2 = 0.010
==== e(   7) =     2.53141 eV ==== 

    |psi|^2 = 0.003
==== e(   8) =     3.52456 eV ==== 
     psi = 0.004*[#   2]+0.004*[#   6]
    |psi|^2 = 0.009

 k =   0.0277777778  0.2405626122  0.0000000000
==== e(   1) =   -20.29253 eV ==== 
     psi = 0.386*[#   1]+0.386*[#   5]+0.053*[#   3]+0.053*[#   4]+0.053*[#   7]
          +0.053*[#   8]
    |psi|^2 = 0.984
==== e(   2) =    -9.06361 eV ==== 
     psi = 0.206*[#   3]+0.206*[#   4]+0.206*[#   7]+0.206*[#   8]+0.085*[#   1]
          +0.085*[#   5]
    |psi|^2 = 0.994
==== e(   3) =    -8.45521 eV ==== 
     psi = 0.488*[#   2]+0.488*[#   6]
    |psi|^2 = 0.975
==== e(   4) =    -7.35005 eV ==== 
     psi = 0.249*[#   3]+0.249*[#   4]+0.249*[#   7]+0.249*[#   8]+0.001*[#   1]
          +0.001*[#   5]
    |psi|^2 = 0.997
==== e(   5) =     2.04772 eV ==== 
     psi = 0.007*[#   3]+0.007*[#   4]+0.007*[#   7]+0.007*[#   8]
    |psi|^2 = 0.030
==== e(   6) =     2.70136 eV ==== 
     psi = 0.005*[#   2]+0.005*[#   6]
    |psi|^2 = 0.009
==== e(   7) =     2.85284 eV ==== 

    |psi|^2 = 0.003
==== e(   8) =     3.83374 eV ==== 
     psi = 0.011*[#   2]+0.011*[#   6]
    |psi|^2 = 0.022

 k =   0.0277777778  0.2726376271  0.0000000000
==== e(   1) =   -20.03012 eV ==== 
     psi = 0.369*[#   1]+0.369*[#   5]+0.061*[#   3]+0.061*[#   4]+0.061*[#   7]
          +0.061*[#   8]
    |psi|^2 = 0.984
==== e(   2) =    -9.72298 eV ==== 
     psi = 0.199*[#   3]+0.199*[#   4]+0.199*[#   7]+0.199*[#   8]+0.098*[#   1]
          +0.098*[#   5]
    |psi|^2 = 0.993
==== e(   3) =    -8.15842 eV ==== 
     psi = 0.490*[#   2]+0.490*[#   6]
    |psi|^2 = 0.979
==== e(   4) =    -7.60695 eV ==== 
     psi = 0.248*[#   3]+0.248*[#   4]+0.248*[#   7]+0.248*[#   8]+0.002*[#   1]
          +0.002*[#   5]
    |psi|^2 = 0.997
==== e(   5) =     2.40713 eV ==== 
     psi = 0.007*[#   3]+0.007*[#   4]+0.007*[#   7]+0.007*[#   8]
    |psi|^2 = 0.028
==== e(   6) =     3.05605 eV ==== 
     psi = 0.011*[#   2]+0.011*[#   6]
    |psi|^2 = 0.021
==== e(   7) =     3.21999 eV ==== 

    |psi|^2 = 0.002
==== e(   8) =     3.73171 eV ==== 
     psi = 0.459*[#   2]+0.459*[#   6]
    |psi|^2 = 0.918

 k =   0.0277777778  0.3047126421  0.0000000000
==== e(   1) =   -19.73644 eV ==== 
     psi = 0.353*[#   1]+0.353*[#   5]+0.069*[#   3]+0.069*[#   4]+0.069*[#   7]
          +0.069*[#   8]
    |psi|^2 = 0.983
==== e(   2) =   -10.39515 eV ==== 
     psi = 0.193*[#   3]+0.193*[#   4]+0.193*[#   7]+0.193*[#   8]+0.111*[#   1]
          +0.111*[#   5]
    |psi|^2 = 0.993
==== e(   3) =    -7.85162 eV ==== 
     psi = 0.248*[#   3]+0.248*[#   4]+0.248*[#   7]+0.248*[#   8]+0.002*[#   1]
          +0.002*[#   5]
    |psi|^2 = 0.997
==== e(   4) =    -7.82931 eV ==== 
     psi = 0.492*[#   2]+0.492*[#   6]
    |psi|^2 = 0.984
==== e(   5) =     2.81052 eV ==== 
     psi = 0.006*[#   3]+0.006*[#   4]+0.006*[#   7]+0.006*[#   8]
    |psi|^2 = 0.023
==== e(   6) =     3.07167 eV ==== 
     psi = 0.446*[#   2]+0.446*[#   6]
    |psi|^2 = 0.891
==== e(   7) =     3.50395 eV ==== 
     psi = 0.036*[#   2]+0.036*[#   6]
    |psi|^2 = 0.072
==== e(   8) =     3.63171 eV ==== 
     psi = 0.002*[#   1]+0.002*[#   5]
    |psi|^2 = 0.004

 k =   0.0277777778  0.3367876570  0.0000000000
==== e(   1) =   -19.41227 eV ==== 
     psi = 0.339*[#   1]+0.339*[#   5]+0.077*[#   3]+0.077*[#   4]+0.077*[#   7]
          +0.077*[#   8]
    |psi|^2 = 0.983
==== e(   2) =   -11.07130 eV ==== 
     psi = 0.187*[#   3]+0.187*[#   4]+0.187*[#   7]+0.187*[#   8]+0.122*[#   1]
          +0.122*[#   5]
    |psi|^2 = 0.992
==== e(   3) =    -8.07885 eV ==== 
     psi = 0.248*[#   3]+0.248*[#   4]+0.248*[#   7]+0.248*[#   8]+0.002*[#   1]
          +0.002*[#   5]
    |psi|^2 = 0.996
==== e(   4) =    -7.47047 eV ==== 
     psi = 0.494*[#   2]+0.494*[#   6]
    |psi|^2 = 0.987
==== e(   5) =     2.44390 eV ==== 
     psi = 0.475*[#   2]+0.475*[#   6]
    |psi|^2 = 0.950
==== e(   6) =     3.25570 eV ==== 
     psi = 0.003*[#   3]+0.003*[#   4]+0.003*[#   7]+0.003*[#   8]+0.002*[#   1]
          +0.002*[#   5]
    |psi|^2 = 0.015
==== e(   7) =     3.77974 eV ==== 
     psi = 0.260*[#   1]+0.260*[#   5]+0.096*[#   3]+0.096*[#   4]+0.096*[#   7]
          +0.096*[#   8]
    |psi|^2 = 0.903
==== e(   8) =     3.93937 eV ==== 
     psi = 0.006*[#   2]+0.006*[#   6]
    |psi|^2 = 0.013

 k =   0.0277777778  0.3688626720  0.0000000000
==== e(   1) =   -19.05866 eV ==== 
     psi = 0.326*[#   1]+0.326*[#   5]+0.083*[#   3]+0.083*[#   4]+0.083*[#   7]
          +0.083*[#   8]
    |psi|^2 = 0.984
==== e(   2) =   -11.74401 eV ==== 
     psi = 0.181*[#   3]+0.181*[#   4]+0.181*[#   7]+0.181*[#   8]+0.133*[#   1]
          +0.133*[#   5]
    |psi|^2 = 0.991
==== e(   3) =    -8.28459 eV ==== 
     psi = 0.248*[#   3]+0.248*[#   4]+0.248*[#   7]+0.248*[#   8]+0.002*[#   1]
          +0.002*[#   5]
    |psi|^2 = 0.996
==== e(   4) =    -7.08563 eV ==== 
     psi = 0.495*[#   2]+0.495*[#   6]
    |psi|^2 = 0.991
==== e(   5) =     1.79361 eV ==== 
     psi = 0.477*[#   2]+0.477*[#   6]
    |psi|^2 = 0.954
==== e(   6) =     3.61923 eV ==== 
     psi = 0.231*[#   1]+0.231*[#   5]+0.056*[#   3]+0.056*[#   4]+0.056*[#   7]
          +0.056*[#   8]
    |psi|^2 = 0.685
==== e(   7) =     3.78101 eV ==== 
     psi = 0.050*[#   1]+0.050*[#   5]+0.036*[#   3]+0.036*[#   4]+0.036*[#   7]
          +0.036*[#   8]
    |psi|^2 = 0.243
==== e(   8) =     4.43397 eV ==== 
     psi = 0.004*[#   2]+0.004*[#   6]
    |psi|^2 = 0.007

 k =   0.0277777778  0.4009376869  0.0000000000
==== e(   1) =   -18.67717 eV ==== 
     psi = 0.315*[#   1]+0.315*[#   5]+0.089*[#   3]+0.089*[#   4]+0.089*[#   7]
          +0.089*[#   8]
    |psi|^2 = 0.984
==== e(   2) =   -12.40674 eV ==== 
     psi = 0.176*[#   3]+0.176*[#   4]+0.176*[#   7]+0.176*[#   8]+0.142*[#   1]
          +0.142*[#   5]
    |psi|^2 = 0.990
==== e(   3) =    -8.46572 eV ==== 
     psi = 0.248*[#   3]+0.248*[#   4]+0.248*[#   7]+0.248*[#   8]+0.002*[#   1]
          +0.002*[#   5]
    |psi|^2 = 0.996
==== e(   4) =    -6.68032 eV ==== 
     psi = 0.496*[#   2]+0.496*[#   6]
    |psi|^2 = 0.993
==== e(   5) =     1.14676 eV ==== 
     psi = 0.478*[#   2]+0.478*[#   6]
    |psi|^2 = 0.955
==== e(   6) =     3.52472 eV ==== 
     psi = 0.293*[#   1]+0.293*[#   5]+0.075*[#   3]+0.075*[#   4]+0.075*[#   7]
          +0.075*[#   8]
    |psi|^2 = 0.887
==== e(   7) =     4.29615 eV ==== 
     psi = 0.009*[#   3]+0.009*[#   4]+0.009*[#   7]+0.009*[#   8]+0.003*[#   1]
          +0.003*[#   5]
    |psi|^2 = 0.041
==== e(   8) =     4.97419 eV ==== 
     psi = 0.003*[#   2]+0.003*[#   6]
    |psi|^2 = 0.005

 k =   0.0277777778  0.4330127019  0.0000000000
==== e(   1) =   -18.27034 eV ==== 
     psi = 0.306*[#   1]+0.306*[#   5]+0.093*[#   3]+0.093*[#   4]+0.093*[#   7]
          +0.093*[#   8]
    |psi|^2 = 0.985
==== e(   2) =   -13.05309 eV ==== 
     psi = 0.172*[#   3]+0.172*[#   4]+0.172*[#   7]+0.172*[#   8]+0.150*[#   1]
          +0.150*[#   5]
    |psi|^2 = 0.989
==== e(   3) =    -8.61982 eV ==== 
     psi = 0.248*[#   3]+0.248*[#   4]+0.248*[#   7]+0.248*[#   8]+0.002*[#   1]
          +0.002*[#   5]
    |psi|^2 = 0.996
==== e(   4) =    -6.26325 eV ==== 
     psi = 0.497*[#   2]+0.497*[#   6]
    |psi|^2 = 0.995
==== e(   5) =     0.51916 eV ==== 
     psi = 0.478*[#   2]+0.478*[#   6]
    |psi|^2 = 0.956
==== e(   6) =     3.42703 eV ==== 
     psi = 0.307*[#   1]+0.307*[#   5]+0.072*[#   3]+0.072*[#   4]+0.072*[#   7]
          +0.072*[#   8]
    |psi|^2 = 0.901
==== e(   7) =     4.87333 eV ==== 
     psi = 0.006*[#   3]+0.006*[#   4]+0.006*[#   7]+0.006*[#   8]+0.001*[#   1]
          +0.001*[#   5]
    |psi|^2 = 0.024
==== e(   8) =     5.55812 eV ==== 
     psi = 0.002*[#   2]+0.002*[#   6]
    |psi|^2 = 0.004

 k =   0.0277777778  0.4650877168  0.0000000000
==== e(   1) =   -17.84283 eV ==== 
     psi = 0.299*[#   1]+0.299*[#   5]+0.097*[#   3]+0.097*[#   4]+0.097*[#   7]
          +0.097*[#   8]
    |psi|^2 = 0.986
==== e(   2) =   -13.67543 eV ==== 
     psi = 0.169*[#   3]+0.169*[#   4]+0.169*[#   7]+0.169*[#   8]+0.155*[#   1]
          +0.155*[#   5]
    |psi|^2 = 0.988
==== e(   3) =    -8.74506 eV ==== 
     psi = 0.248*[#   3]+0.248*[#   4]+0.248*[#   7]+0.248*[#   8]+0.002*[#   1]
          +0.002*[#   5]
    |psi|^2 = 0.996
==== e(   4) =    -5.84874 eV ==== 
     psi = 0.498*[#   2]+0.498*[#   6]
    |psi|^2 = 0.996
==== e(   5) =    -0.06967 eV ==== 
     psi = 0.478*[#   2]+0.478*[#   6]
    |psi|^2 = 0.957
==== e(   6) =     3.34591 eV ==== 
     psi = 0.317*[#   1]+0.317*[#   5]+0.068*[#   3]+0.068*[#   4]+0.068*[#   7]
          +0.068*[#   8]
    |psi|^2 = 0.907
==== e(   7) =     5.49392 eV ==== 
     psi = 0.004*[#   3]+0.004*[#   4]+0.004*[#   7]+0.004*[#   8]
    |psi|^2 = 0.016
==== e(   8) =     6.18434 eV ==== 
     psi = 0.002*[#   2]+0.002*[#   6]
    |psi|^2 = 0.004

 k =   0.0277777778  0.4971627318  0.0000000000
==== e(   1) =   -17.40471 eV ==== 
     psi = 0.298*[#   1]+0.298*[#   5]+0.098*[#   3]+0.098*[#   4]+0.098*[#   7]
          +0.098*[#   8]
    |psi|^2 = 0.988
==== e(   2) =   -14.26148 eV ==== 
     psi = 0.168*[#   3]+0.168*[#   4]+0.168*[#   7]+0.168*[#   8]+0.156*[#   1]
          +0.156*[#   5]
    |psi|^2 = 0.986
==== e(   3) =    -8.84008 eV ==== 
     psi = 0.248*[#   3]+0.248*[#   4]+0.248*[#   7]+0.248*[#   8]+0.002*[#   1]
          +0.002*[#   5]
    |psi|^2 = 0.996
==== e(   4) =    -5.46138 eV ==== 
     psi = 0.498*[#   2]+0.498*[#   6]
    |psi|^2 = 0.997
==== e(   5) =    -0.59117 eV ==== 
     psi = 0.479*[#   2]+0.479*[#   6]
    |psi|^2 = 0.958
==== e(   6) =     3.28375 eV ==== 
     psi = 0.324*[#   1]+0.324*[#   5]+0.065*[#   3]+0.065*[#   4]+0.065*[#   7]
          +0.065*[#   8]
    |psi|^2 = 0.910
==== e(   7) =     6.15556 eV ==== 
     psi = 0.003*[#   3]+0.003*[#   4]+0.003*[#   7]+0.003*[#   8]
    |psi|^2 = 0.011
==== e(   8) =     6.85086 eV ==== 
     psi = 0.002*[#   2]+0.002*[#   6]
    |psi|^2 = 0.003

 k =   0.0277777778  0.5292377468  0.0000000000
==== e(   1) =   -16.98314 eV ==== 
     psi = 0.304*[#   1]+0.304*[#   5]+0.095*[#   3]+0.095*[#   4]+0.095*[#   7]
          +0.095*[#   8]
    |psi|^2 = 0.990
==== e(   2) =   -14.78251 eV ==== 
     psi = 0.171*[#   3]+0.171*[#   4]+0.171*[#   7]+0.171*[#   8]+0.149*[#   1]
          +0.149*[#   5]
    |psi|^2 = 0.984
==== e(   3) =    -8.90393 eV ==== 
     psi = 0.248*[#   3]+0.248*[#   4]+0.248*[#   7]+0.248*[#   8]+0.002*[#   1]
          +0.002*[#   5]
    |psi|^2 = 0.996
==== e(   4) =    -5.14303 eV ==== 
     psi = 0.499*[#   2]+0.499*[#   6]
    |psi|^2 = 0.997
==== e(   5) =    -1.00056 eV ==== 
     psi = 0.479*[#   2]+0.479*[#   6]
    |psi|^2 = 0.958
==== e(   6) =     3.24175 eV ==== 
     psi = 0.329*[#   1]+0.329*[#   5]+0.063*[#   3]+0.063*[#   4]+0.063*[#   7]
          +0.063*[#   8]
    |psi|^2 = 0.911
==== e(   7) =     6.85553 eV ==== 
     psi = 0.002*[#   3]+0.002*[#   4]+0.002*[#   7]+0.002*[#   8]
    |psi|^2 = 0.009
==== e(   8) =     7.55383 eV ==== 
     psi = 0.002*[#   2]+0.002*[#   6]
    |psi|^2 = 0.004

 k =   0.0277777778  0.5613127617  0.0000000000
==== e(   1) =   -16.66789 eV ==== 
     psi = 0.322*[#   1]+0.322*[#   5]+0.087*[#   3]+0.087*[#   4]+0.087*[#   7]
          +0.087*[#   8]
    |psi|^2 = 0.993
==== e(   2) =   -15.14774 eV ==== 
     psi = 0.180*[#   3]+0.180*[#   4]+0.180*[#   7]+0.180*[#   8]+0.131*[#   1]
          +0.131*[#   5]
    |psi|^2 = 0.981
==== e(   3) =    -8.93601 eV ==== 
     psi = 0.248*[#   3]+0.248*[#   4]+0.248*[#   7]+0.248*[#   8]+0.002*[#   1]
          +0.002*[#   5]
    |psi|^2 = 0.995
==== e(   4) =    -4.95550 eV ==== 
     psi = 0.499*[#   2]+0.499*[#   6]
    |psi|^2 = 0.998
==== e(   5) =    -1.23409 eV ==== 
     psi = 0.479*[#   2]+0.479*[#   6]
    |psi|^2 = 0.959
==== e(   6) =     3.22059 eV ==== 
     psi = 0.332*[#   1]+0.332*[#   5]+0.062*[#   3]+0.062*[#   4]+0.062*[#   7]
          +0.062*[#   8]
    |psi|^2 = 0.912
==== e(   7) =     7.58667 eV ==== 
     psi = 0.002*[#   1]+0.002*[#   5]+0.001*[#   3]+0.001*[#   4]+0.001*[#   7]
          +0.001*[#   8]
    |psi|^2 = 0.009
==== e(   8) =     8.27842 eV ==== 
     psi = 0.003*[#   2]+0.003*[#   6]
    |psi|^2 = 0.006

 k =   0.0555555556  0.0962250449  0.0000000000
==== e(   1) =   -21.03664 eV ==== 
     psi = 0.461*[#   1]+0.461*[#   5]+0.016*[#   3]+0.016*[#   4]+0.016*[#   7]
          +0.016*[#   8]
    |psi|^2 = 0.985
==== e(   2) =    -9.30788 eV ==== 
     psi = 0.480*[#   2]+0.480*[#   6]
    |psi|^2 = 0.959
==== e(   3) =    -6.73391 eV ==== 
     psi = 0.237*[#   3]+0.237*[#   4]+0.237*[#   7]+0.237*[#   8]+0.025*[#   1]
          +0.025*[#   5]
    |psi|^2 = 0.997
==== e(   4) =    -6.34179 eV ==== 
     psi = 0.249*[#   3]+0.249*[#   4]+0.249*[#   7]+0.249*[#   8]+0.001*[#   1]
          +0.001*[#   5]
    |psi|^2 = 0.997
==== e(   5) =     1.03452 eV ==== 
     psi = 0.004*[#   3]+0.004*[#   4]+0.004*[#   7]+0.004*[#   8]
    |psi|^2 = 0.018
==== e(   6) =     1.68116 eV ==== 
     psi = 0.006*[#   2]+0.006*[#   6]
    |psi|^2 = 0.013
==== e(   7) =     1.81948 eV ==== 

    |psi|^2 = 0.002
==== e(   8) =     2.82456 eV ==== 
     psi = 0.006*[#   2]+0.006*[#   6]
    |psi|^2 = 0.011

 k =   0.0555555556  0.1283000598  0.0000000000
==== e(   1) =   -20.92035 eV ==== 
     psi = 0.445*[#   1]+0.445*[#   5]+0.024*[#   3]+0.024*[#   4]+0.024*[#   7]
          +0.024*[#   8]
    |psi|^2 = 0.985
==== e(   2) =    -9.17369 eV ==== 
     psi = 0.481*[#   2]+0.481*[#   6]
    |psi|^2 = 0.962
==== e(   3) =    -7.14038 eV ==== 
     psi = 0.231*[#   3]+0.231*[#   4]+0.231*[#   7]+0.231*[#   8]+0.037*[#   1]
          +0.037*[#   5]
    |psi|^2 = 0.997
==== e(   4) =    -6.55866 eV ==== 
     psi = 0.248*[#   3]+0.248*[#   4]+0.248*[#   7]+0.248*[#   8]+0.002*[#   1]
          +0.002*[#   5]
    |psi|^2 = 0.996
==== e(   5) =     1.19231 eV ==== 
     psi = 0.005*[#   3]+0.005*[#   4]+0.005*[#   7]+0.005*[#   8]
    |psi|^2 = 0.023
==== e(   6) =     1.84039 eV ==== 
     psi = 0.006*[#   2]+0.006*[#   6]
    |psi|^2 = 0.012
==== e(   7) =     1.98025 eV ==== 

    |psi|^2 = 0.003
==== e(   8) =     2.98308 eV ==== 
     psi = 0.005*[#   2]+0.005*[#   6]
    |psi|^2 = 0.010

 k =   0.0555555556  0.1603750748  0.0000000000
==== e(   1) =   -20.77111 eV ==== 
     psi = 0.428*[#   1]+0.428*[#   5]+0.032*[#   3]+0.032*[#   4]+0.032*[#   7]
          +0.032*[#   8]
    |psi|^2 = 0.985
==== e(   2) =    -9.00193 eV ==== 
     psi = 0.483*[#   2]+0.483*[#   6]
    |psi|^2 = 0.965
==== e(   3) =    -7.62821 eV ==== 
     psi = 0.224*[#   3]+0.224*[#   4]+0.224*[#   7]+0.224*[#   8]+0.051*[#   1]
          +0.051*[#   5]
    |psi|^2 = 0.997
==== e(   4) =    -6.80831 eV ==== 
     psi = 0.247*[#   3]+0.247*[#   4]+0.247*[#   7]+0.247*[#   8]+0.003*[#   1]
          +0.003*[#   5]
    |psi|^2 = 0.996
==== e(   5) =     1.39511 eV ==== 
     psi = 0.007*[#   3]+0.007*[#   4]+0.007*[#   7]+0.007*[#   8]
    |psi|^2 = 0.027
==== e(   6) =     2.04495 eV ==== 
     psi = 0.006*[#   2]+0.006*[#   6]
    |psi|^2 = 0.011
==== e(   7) =     2.18696 eV ==== 

    |psi|^2 = 0.003
==== e(   8) =     3.18667 eV ==== 
     psi = 0.005*[#   2]+0.005*[#   6]
    |psi|^2 = 0.009

 k =   0.0555555556  0.1924500897  0.0000000000
==== e(   1) =   -20.58916 eV ==== 
     psi = 0.410*[#   1]+0.410*[#   5]+0.041*[#   3]+0.041*[#   4]+0.041*[#   7]
          +0.041*[#   8]
    |psi|^2 = 0.984
==== e(   2) =    -8.79326 eV ==== 
     psi = 0.485*[#   2]+0.485*[#   6]
    |psi|^2 = 0.969
==== e(   3) =    -8.18040 eV ==== 
     psi = 0.217*[#   3]+0.217*[#   4]+0.217*[#   7]+0.217*[#   8]+0.064*[#   1]
          +0.064*[#   5]
    |psi|^2 = 0.996
==== e(   4) =    -7.07580 eV ==== 
     psi = 0.247*[#   3]+0.247*[#   4]+0.247*[#   7]+0.247*[#   8]+0.004*[#   1]
          +0.004*[#   5]
    |psi|^2 = 0.996
==== e(   5) =     1.64285 eV ==== 
     psi = 0.007*[#   3]+0.007*[#   4]+0.007*[#   7]+0.007*[#   8]
    |psi|^2 = 0.030
==== e(   6) =     2.29465 eV ==== 
     psi = 0.005*[#   2]+0.005*[#   6]
    |psi|^2 = 0.010
==== e(   7) =     2.43959 eV ==== 

    |psi|^2 = 0.003
==== e(   8) =     3.43498 eV ==== 
     psi = 0.004*[#   2]+0.004*[#   6]
    |psi|^2 = 0.009

 k =   0.0555555556  0.2245251047  0.0000000000
==== e(   1) =   -20.37479 eV ==== 
     psi = 0.392*[#   1]+0.392*[#   5]+0.050*[#   3]+0.050*[#   4]+0.050*[#   7]
          +0.050*[#   8]
    |psi|^2 = 0.984
==== e(   2) =    -8.78057 eV ==== 
     psi = 0.210*[#   3]+0.210*[#   4]+0.210*[#   7]+0.210*[#   8]+0.078*[#   1]
          +0.078*[#   5]
    |psi|^2 = 0.995
==== e(   3) =    -8.54854 eV ==== 
     psi = 0.487*[#   2]+0.487*[#   6]
    |psi|^2 = 0.974
==== e(   4) =    -7.34908 eV ==== 
     psi = 0.246*[#   3]+0.246*[#   4]+0.246*[#   7]+0.246*[#   8]+0.005*[#   1]
          +0.005*[#   5]
    |psi|^2 = 0.996
==== e(   5) =     1.93541 eV ==== 
     psi = 0.008*[#   3]+0.008*[#   4]+0.008*[#   7]+0.008*[#   8]
    |psi|^2 = 0.031
==== e(   6) =     2.58903 eV ==== 
     psi = 0.005*[#   2]+0.005*[#   6]
    |psi|^2 = 0.009
==== e(   7) =     2.73811 eV ==== 

    |psi|^2 = 0.003
==== e(   8) =     3.72647 eV ==== 
     psi = 0.005*[#   2]+0.005*[#   6]
    |psi|^2 = 0.010

 k =   0.0555555556  0.2566001196  0.0000000000
==== e(   1) =   -20.12839 eV ==== 
     psi = 0.375*[#   1]+0.375*[#   5]+0.058*[#   3]+0.058*[#   4]+0.058*[#   7]
          +0.058*[#   8]
    |psi|^2 = 0.984
==== e(   2) =    -9.41417 eV ==== 
     psi = 0.203*[#   3]+0.203*[#   4]+0.203*[#   7]+0.203*[#   8]+0.092*[#   1]
          +0.092*[#   5]
    |psi|^2 = 0.994
==== e(   3) =    -8.26896 eV ==== 
     psi = 0.489*[#   2]+0.489*[#   6]
    |psi|^2 = 0.978
==== e(   4) =    -7.61873 eV ==== 
     psi = 0.246*[#   3]+0.246*[#   4]+0.246*[#   7]+0.246*[#   8]+0.005*[#   1]
          +0.005*[#   5]
    |psi|^2 = 0.996
==== e(   5) =     2.27262 eV ==== 
     psi = 0.007*[#   3]+0.007*[#   4]+0.007*[#   7]+0.007*[#   8]
    |psi|^2 = 0.030
==== e(   6) =     2.92622 eV ==== 
     psi = 0.005*[#   2]+0.005*[#   6]
    |psi|^2 = 0.011
==== e(   7) =     3.08247 eV ==== 

    |psi|^2 = 0.003
==== e(   8) =     3.93930 eV ==== 
     psi = 0.376*[#   2]+0.376*[#   6]
    |psi|^2 = 0.752

 k =   0.0555555556  0.2886751346  0.0000000000
==== e(   1) =   -19.85046 eV ==== 
     psi = 0.359*[#   1]+0.359*[#   5]+0.066*[#   3]+0.066*[#   4]+0.066*[#   7]
          +0.066*[#   8]
    |psi|^2 = 0.983
==== e(   2) =   -10.06885 eV ==== 
     psi = 0.196*[#   3]+0.196*[#   4]+0.196*[#   7]+0.196*[#   8]+0.105*[#   1]
          +0.105*[#   5]
    |psi|^2 = 0.993
==== e(   3) =    -7.95608 eV ==== 
     psi = 0.491*[#   2]+0.491*[#   6]
    |psi|^2 = 0.982
==== e(   4) =    -7.87744 eV ==== 
     psi = 0.246*[#   3]+0.246*[#   4]+0.246*[#   7]+0.246*[#   8]+0.006*[#   1]
          +0.006*[#   5]
    |psi|^2 = 0.996
==== e(   5) =     2.65420 eV ==== 
     psi = 0.007*[#   3]+0.007*[#   4]+0.007*[#   7]+0.007*[#   8]
    |psi|^2 = 0.026
==== e(   6) =     3.24658 eV ==== 
     psi = 0.183*[#   2]+0.183*[#   6]
    |psi|^2 = 0.367
==== e(   7) =     3.42714 eV ==== 
     psi = 0.299*[#   2]+0.299*[#   6]
    |psi|^2 = 0.599
==== e(   8) =     3.47250 eV ==== 

    |psi|^2 = 0.002

 k =   0.0555555556  0.3207501495  0.0000000000
==== e(   1) =   -19.54166 eV ==== 
     psi = 0.344*[#   1]+0.344*[#   5]+0.074*[#   3]+0.074*[#   4]+0.074*[#   7]
          +0.074*[#   8]
    |psi|^2 = 0.983
==== e(   2) =   -10.73431 eV ==== 
     psi = 0.190*[#   3]+0.190*[#   4]+0.190*[#   7]+0.190*[#   8]+0.117*[#   1]
          +0.117*[#   5]
    |psi|^2 = 0.993
==== e(   3) =    -8.11961 eV ==== 
     psi = 0.246*[#   3]+0.246*[#   4]+0.246*[#   7]+0.246*[#   8]+0.006*[#   1]
          +0.006*[#   5]
    |psi|^2 = 0.996
==== e(   4) =    -7.61209 eV ==== 
     psi = 0.493*[#   2]+0.493*[#   6]
    |psi|^2 = 0.986
==== e(   5) =     2.71802 eV ==== 
     psi = 0.475*[#   2]+0.475*[#   6]
    |psi|^2 = 0.949
==== e(   6) =     3.07948 eV ==== 
     psi = 0.005*[#   3]+0.005*[#   4]+0.005*[#   7]+0.005*[#   8]
    |psi|^2 = 0.021
==== e(   7) =     3.75769 eV ==== 
     psi = 0.009*[#   2]+0.009*[#   6]
    |psi|^2 = 0.017
==== e(   8) =     3.90555 eV ==== 
     psi = 0.005*[#   1]+0.005*[#   5]
    |psi|^2 = 0.013

 k =   0.0555555556  0.3528251645  0.0000000000
==== e(   1) =   -19.20290 eV ==== 
     psi = 0.331*[#   1]+0.331*[#   5]+0.081*[#   3]+0.081*[#   4]+0.081*[#   7]
          +0.081*[#   8]
    |psi|^2 = 0.984
==== e(   2) =   -11.40198 eV ==== 
     psi = 0.184*[#   3]+0.184*[#   4]+0.184*[#   7]+0.184*[#   8]+0.128*[#   1]
          +0.128*[#   5]
    |psi|^2 = 0.992
==== e(   3) =    -8.34093 eV ==== 
     psi = 0.246*[#   3]+0.246*[#   4]+0.246*[#   7]+0.246*[#   8]+0.006*[#   1]
          +0.006*[#   5]
    |psi|^2 = 0.996
==== e(   4) =    -7.24003 eV ==== 
     psi = 0.495*[#   2]+0.495*[#   6]
    |psi|^2 = 0.989
==== e(   5) =     2.07916 eV ==== 
     psi = 0.478*[#   2]+0.478*[#   6]
    |psi|^2 = 0.956
==== e(   6) =     3.54482 eV ==== 
     psi = 0.004*[#   1]+0.004*[#   5]+0.002*[#   3]+0.002*[#   4]+0.002*[#   7]
          +0.002*[#   8]
    |psi|^2 = 0.015
==== e(   7) =     3.94342 eV ==== 
     psi = 0.261*[#   1]+0.261*[#   5]+0.096*[#   3]+0.096*[#   4]+0.096*[#   7]
          +0.096*[#   8]
    |psi|^2 = 0.906
==== e(   8) =     4.22866 eV ==== 
     psi = 0.004*[#   2]+0.004*[#   6]
    |psi|^2 = 0.008

 k =   0.0555555556  0.3849001795  0.0000000000
==== e(   1) =   -18.83544 eV ==== 
     psi = 0.319*[#   1]+0.319*[#   5]+0.087*[#   3]+0.087*[#   4]+0.087*[#   7]
          +0.087*[#   8]
    |psi|^2 = 0.984
==== e(   2) =   -12.06452 eV ==== 
     psi = 0.179*[#   3]+0.179*[#   4]+0.179*[#   7]+0.179*[#   8]+0.138*[#   1]
          +0.138*[#   5]
    |psi|^2 = 0.991
==== e(   3) =    -8.53806 eV ==== 
     psi = 0.246*[#   3]+0.246*[#   4]+0.246*[#   7]+0.246*[#   8]+0.007*[#   1]
          +0.007*[#   5]
    |psi|^2 = 0.996
==== e(   4) =    -6.84439 eV ==== 
     psi = 0.496*[#   2]+0.496*[#   6]
    |psi|^2 = 0.992
==== e(   5) =     1.43560 eV ==== 
     psi = 0.479*[#   2]+0.479*[#   6]
    |psi|^2 = 0.957
==== e(   6) =     3.80012 eV ==== 
     psi = 0.266*[#   1]+0.266*[#   5]+0.072*[#   3]+0.072*[#   4]+0.072*[#   7]
          +0.072*[#   8]
    |psi|^2 = 0.821
==== e(   7) =     4.08097 eV ==== 
     psi = 0.018*[#   3]+0.018*[#   4]+0.018*[#   7]+0.018*[#   8]+0.016*[#   1]
          +0.016*[#   5]
    |psi|^2 = 0.104
==== e(   8) =     4.74625 eV ==== 
     psi = 0.003*[#   2]+0.003*[#   6]
    |psi|^2 = 0.006

 k =   0.0555555556  0.4169751944  0.0000000000
==== e(   1) =   -18.44126 eV ==== 
     psi = 0.309*[#   1]+0.309*[#   5]+0.092*[#   3]+0.092*[#   4]+0.092*[#   7]
          +0.092*[#   8]
    |psi|^2 = 0.985
==== e(   2) =   -12.71520 eV ==== 
     psi = 0.174*[#   3]+0.174*[#   4]+0.174*[#   7]+0.174*[#   8]+0.146*[#   1]
          +0.146*[#   5]
    |psi|^2 = 0.990
==== e(   3) =    -8.70846 eV ==== 
     psi = 0.246*[#   3]+0.246*[#   4]+0.246*[#   7]+0.246*[#   8]+0.007*[#   1]
          +0.007*[#   5]
    |psi|^2 = 0.995
==== e(   4) =    -6.43197 eV ==== 
     psi = 0.497*[#   2]+0.497*[#   6]
    |psi|^2 = 0.994
==== e(   5) =     0.80243 eV ==== 
     psi = 0.479*[#   2]+0.479*[#   6]
    |psi|^2 = 0.958
==== e(   6) =     3.70150 eV ==== 
     psi = 0.293*[#   1]+0.293*[#   5]+0.076*[#   3]+0.076*[#   4]+0.076*[#   7]
          +0.076*[#   8]
    |psi|^2 = 0.891
==== e(   7) =     4.62950 eV ==== 
     psi = 0.007*[#   3]+0.007*[#   4]+0.007*[#   7]+0.007*[#   8]+0.002*[#   1]
          +0.002*[#   5]
    |psi|^2 = 0.032
==== e(   8) =     5.30778 eV ==== 
     psi = 0.002*[#   2]+0.002*[#   6]
    |psi|^2 = 0.004

 k =   0.0555555556  0.4490502094  0.0000000000
==== e(   1) =   -18.02375 eV ==== 
     psi = 0.301*[#   1]+0.301*[#   5]+0.096*[#   3]+0.096*[#   4]+0.096*[#   7]
          +0.096*[#   8]
    |psi|^2 = 0.986
==== e(   2) =   -13.34700 eV ==== 
     psi = 0.171*[#   3]+0.171*[#   4]+0.171*[#   7]+0.171*[#   8]+0.153*[#   1]
          +0.153*[#   5]
    |psi|^2 = 0.989
==== e(   3) =    -8.85019 eV ==== 
     psi = 0.245*[#   3]+0.245*[#   4]+0.245*[#   7]+0.245*[#   8]+0.007*[#   1]
          +0.007*[#   5]
    |psi|^2 = 0.995
==== e(   4) =    -6.01377 eV ==== 
     psi = 0.498*[#   2]+0.498*[#   6]
    |psi|^2 = 0.996
==== e(   5) =     0.19628 eV ==== 
     psi = 0.479*[#   2]+0.479*[#   6]
    |psi|^2 = 0.958
==== e(   6) =     3.61211 eV ==== 
     psi = 0.305*[#   1]+0.305*[#   5]+0.073*[#   3]+0.073*[#   4]+0.073*[#   7]
          +0.073*[#   8]
    |psi|^2 = 0.901
==== e(   7) =     5.22802 eV ==== 
     psi = 0.005*[#   3]+0.005*[#   4]+0.005*[#   7]+0.005*[#   8]
    |psi|^2 = 0.020
==== e(   8) =     5.91179 eV ==== 
     psi = 0.002*[#   2]+0.002*[#   6]
    |psi|^2 = 0.004

 k =   0.0555555556  0.4811252243  0.0000000000
==== e(   1) =   -17.58958 eV ==== 
     psi = 0.296*[#   1]+0.296*[#   5]+0.099*[#   3]+0.099*[#   4]+0.099*[#   7]
          +0.099*[#   8]
    |psi|^2 = 0.987
==== e(   2) =   -13.95048 eV ==== 
     psi = 0.168*[#   3]+0.168*[#   4]+0.168*[#   7]+0.168*[#   8]+0.157*[#   1]
          +0.157*[#   5]
    |psi|^2 = 0.987
==== e(   3) =    -8.96179 eV ==== 
     psi = 0.245*[#   3]+0.245*[#   4]+0.245*[#   7]+0.245*[#   8]+0.007*[#   1]
          +0.007*[#   5]
    |psi|^2 = 0.995
==== e(   4) =    -5.60834 eV ==== 
     psi = 0.498*[#   2]+0.498*[#   6]
    |psi|^2 = 0.996
==== e(   5) =    -0.35986 eV ==== 
     psi = 0.480*[#   2]+0.480*[#   6]
    |psi|^2 = 0.959
==== e(   6) =     3.54038 eV ==== 
     psi = 0.314*[#   1]+0.314*[#   5]+0.069*[#   3]+0.069*[#   4]+0.069*[#   7]
          +0.069*[#   8]
    |psi|^2 = 0.906
==== e(   7) =     5.86873 eV ==== 
     psi = 0.003*[#   3]+0.003*[#   4]+0.003*[#   7]+0.003*[#   8]
    |psi|^2 = 0.013
==== e(   8) =     6.55641 eV ==== 
     psi = 0.002*[#   2]+0.002*[#   6]
    |psi|^2 = 0.003

 k =   0.0555555556  0.5132002393  0.0000000000
==== e(   1) =   -17.15474 eV ==== 
     psi = 0.298*[#   1]+0.298*[#   5]+0.098*[#   3]+0.098*[#   4]+0.098*[#   7]
          +0.098*[#   8]
    |psi|^2 = 0.989
==== e(   2) =   -14.50762 eV ==== 
     psi = 0.169*[#   3]+0.169*[#   4]+0.169*[#   7]+0.169*[#   8]+0.155*[#   1]
          +0.155*[#   5]
    |psi|^2 = 0.985
==== e(   3) =    -9.04221 eV ==== 
     psi = 0.245*[#   3]+0.245*[#   4]+0.245*[#   7]+0.245*[#   8]+0.007*[#   1]
          +0.007*[#   5]
    |psi|^2 = 0.995
==== e(   4) =    -5.24786 eV ==== 
     psi = 0.499*[#   2]+0.499*[#   6]
    |psi|^2 = 0.997
==== e(   5) =    -0.83041 eV ==== 
     psi = 0.480*[#   2]+0.480*[#   6]
    |psi|^2 = 0.960
==== e(   6) =     3.48818 eV ==== 
     psi = 0.320*[#   1]+0.320*[#   5]+0.067*[#   3]+0.067*[#   4]+0.067*[#   7]
          +0.067*[#   8]
    |psi|^2 = 0.908
==== e(   7) =     6.54902 eV ==== 
     psi = 0.002*[#   3]+0.002*[#   4]+0.002*[#   7]+0.002*[#   8]
    |psi|^2 = 0.009
==== e(   8) =     7.23832 eV ==== 
     psi = 0.002*[#   2]+0.002*[#   6]
    |psi|^2 = 0.004

 k =   0.0555555556  0.5452752542  0.0000000000
==== e(   1) =   -16.76780 eV ==== 
     psi = 0.310*[#   1]+0.310*[#   5]+0.093*[#   3]+0.093*[#   4]+0.093*[#   7]
          +0.093*[#   8]
    |psi|^2 = 0.992
==== e(   2) =   -14.96846 eV ==== 
     psi = 0.175*[#   3]+0.175*[#   4]+0.175*[#   7]+0.175*[#   8]+0.142*[#   1]
          +0.142*[#   5]
    |psi|^2 = 0.982
==== e(   3) =    -9.09074 eV ==== 
     psi = 0.245*[#   3]+0.245*[#   4]+0.245*[#   7]+0.245*[#   8]+0.007*[#   1]
          +0.007*[#   5]
    |psi|^2 = 0.995
==== e(   4) =    -4.98507 eV ==== 
     psi = 0.499*[#   2]+0.499*[#   6]
    |psi|^2 = 0.998
==== e(   5) =    -1.16020 eV ==== 
     psi = 0.480*[#   2]+0.480*[#   6]
    |psi|^2 = 0.960
==== e(   6) =     3.45651 eV ==== 
     psi = 0.324*[#   1]+0.324*[#   5]+0.065*[#   3]+0.065*[#   4]+0.065*[#   7]
          +0.065*[#   8]
    |psi|^2 = 0.909
==== e(   7) =     7.26469 eV ==== 
     psi = 0.002*[#   1]+0.002*[#   5]+0.001*[#   3]+0.001*[#   4]+0.001*[#   7]
          +0.001*[#   8]
    |psi|^2 = 0.009
==== e(   8) =     7.94881 eV ==== 
     psi = 0.003*[#   2]+0.003*[#   6]
    |psi|^2 = 0.005

 k =   0.0555555556  0.5773502692  0.0000000000
==== e(   1) =   -16.58342 eV ==== 
     psi = 0.325*[#   1]+0.325*[#   5]+0.086*[#   3]+0.086*[#   4]+0.086*[#   7]
          +0.086*[#   8]
    |psi|^2 = 0.994
==== e(   2) =   -15.17757 eV ==== 
     psi = 0.181*[#   3]+0.181*[#   4]+0.181*[#   7]+0.181*[#   8]+0.127*[#   1]
          +0.127*[#   5]
    |psi|^2 = 0.980
==== e(   3) =    -9.10697 eV ==== 
     psi = 0.245*[#   3]+0.245*[#   4]+0.245*[#   7]+0.245*[#   8]+0.007*[#   1]
          +0.007*[#   5]
    |psi|^2 = 0.995
==== e(   4) =    -4.88603 eV ==== 
     psi = 0.499*[#   2]+0.499*[#   6]
    |psi|^2 = 0.998
==== e(   5) =    -1.28174 eV ==== 
     psi = 0.480*[#   2]+0.480*[#   6]
    |psi|^2 = 0.960
==== e(   6) =     3.44590 eV ==== 
     psi = 0.325*[#   1]+0.325*[#   5]+0.065*[#   3]+0.065*[#   4]+0.065*[#   7]
          +0.065*[#   8]
    |psi|^2 = 0.909
==== e(   7) =     7.93826 eV ==== 
     psi = 0.005*[#   1]+0.005*[#   5]
    |psi|^2 = 0.014
==== e(   8) =     8.09690 eV ==== 
     psi = 0.002*[#   3]+0.002*[#   4]+0.002*[#   7]+0.002*[#   8]
    |psi|^2 = 0.009

 k =   0.0833333333  0.1443375673  0.0000000000
==== e(   1) =   -20.78768 eV ==== 
     psi = 0.430*[#   1]+0.430*[#   5]+0.031*[#   3]+0.031*[#   4]+0.031*[#   7]
          +0.031*[#   8]
    |psi|^2 = 0.985
==== e(   2) =    -9.02095 eV ==== 
     psi = 0.483*[#   2]+0.483*[#   6]
    |psi|^2 = 0.965
==== e(   3) =    -7.55115 eV ==== 
     psi = 0.225*[#   3]+0.225*[#   4]+0.225*[#   7]+0.225*[#   8]+0.048*[#   1]
          +0.048*[#   5]
    |psi|^2 = 0.998
==== e(   4) =    -6.81182 eV ==== 
     psi = 0.247*[#   3]+0.247*[#   4]+0.247*[#   7]+0.247*[#   8]+0.004*[#   1]
          +0.004*[#   5]
    |psi|^2 = 0.995
==== e(   5) =     1.37260 eV ==== 
     psi = 0.007*[#   3]+0.007*[#   4]+0.007*[#   7]+0.007*[#   8]
    |psi|^2 = 0.027
==== e(   6) =     2.02225 eV ==== 
     psi = 0.006*[#   2]+0.006*[#   6]
    |psi|^2 = 0.011
==== e(   7) =     2.16400 eV ==== 

    |psi|^2 = 0.003
==== e(   8) =     3.16411 eV ==== 
     psi = 0.005*[#   2]+0.005*[#   6]
    |psi|^2 = 0.009

 k =   0.0833333333  0.1764125823  0.0000000000
==== e(   1) =   -20.62220 eV ==== 
     psi = 0.413*[#   1]+0.413*[#   5]+0.040*[#   3]+0.040*[#   4]+0.040*[#   7]
          +0.040*[#   8]
    |psi|^2 = 0.984
==== e(   2) =    -8.83103 eV ==== 
     psi = 0.484*[#   2]+0.484*[#   6]
    |psi|^2 = 0.969
==== e(   3) =    -8.03141 eV ==== 
     psi = 0.219*[#   3]+0.219*[#   4]+0.219*[#   7]+0.219*[#   8]+0.061*[#   1]
          +0.061*[#   5]
    |psi|^2 = 0.997
==== e(   4) =    -7.09561 eV ==== 
     psi = 0.245*[#   3]+0.245*[#   4]+0.245*[#   7]+0.245*[#   8]+0.007*[#   1]
          +0.007*[#   5]
    |psi|^2 = 0.995
==== e(   5) =     1.59787 eV ==== 
     psi = 0.007*[#   3]+0.007*[#   4]+0.007*[#   7]+0.007*[#   8]
    |psi|^2 = 0.030
==== e(   6) =     2.24937 eV ==== 
     psi = 0.005*[#   2]+0.005*[#   6]
    |psi|^2 = 0.010
==== e(   7) =     2.39368 eV ==== 

    |psi|^2 = 0.004
==== e(   8) =     3.39012 eV ==== 
     psi = 0.004*[#   2]+0.004*[#   6]
    |psi|^2 = 0.008

 k =   0.0833333333  0.2084875972  0.0000000000
==== e(   1) =   -20.42420 eV ==== 
     psi = 0.396*[#   1]+0.396*[#   5]+0.048*[#   3]+0.048*[#   4]+0.048*[#   7]
          +0.048*[#   8]
    |psi|^2 = 0.984
==== e(   2) =    -8.60467 eV ==== 
     psi = 0.486*[#   2]+0.486*[#   6]
    |psi|^2 = 0.973
==== e(   3) =    -8.57073 eV ==== 
     psi = 0.212*[#   3]+0.212*[#   4]+0.212*[#   7]+0.212*[#   8]+0.074*[#   1]
          +0.074*[#   5]
    |psi|^2 = 0.997
==== e(   4) =    -7.39081 eV ==== 
     psi = 0.244*[#   3]+0.244*[#   4]+0.244*[#   7]+0.244*[#   8]+0.008*[#   1]
          +0.008*[#   5]
    |psi|^2 = 0.994
==== e(   5) =     1.86802 eV ==== 
     psi = 0.008*[#   3]+0.008*[#   4]+0.008*[#   7]+0.008*[#   8]
    |psi|^2 = 0.031
==== e(   6) =     2.52149 eV ==== 
     psi = 0.005*[#   2]+0.005*[#   6]
    |psi|^2 = 0.009
==== e(   7) =     2.66927 eV ==== 

    |psi|^2 = 0.004
==== e(   8) =     3.66058 eV ==== 
     psi = 0.004*[#   2]+0.004*[#   6]
    |psi|^2 = 0.008

 k =   0.0833333333  0.2405626122  0.0000000000
==== e(   1) =   -20.19401 eV ==== 
     psi = 0.379*[#   1]+0.379*[#   5]+0.056*[#   3]+0.056*[#   4]+0.056*[#   7]
          +0.056*[#   8]
    |psi|^2 = 0.984
==== e(   2) =    -9.15652 eV ==== 
     psi = 0.205*[#   3]+0.205*[#   4]+0.205*[#   7]+0.205*[#   8]+0.087*[#   1]
          +0.087*[#   5]
    |psi|^2 = 0.996
==== e(   3) =    -8.34287 eV ==== 
     psi = 0.488*[#   2]+0.488*[#   6]
    |psi|^2 = 0.977
==== e(   4) =    -7.68376 eV ==== 
     psi = 0.244*[#   3]+0.244*[#   4]+0.244*[#   7]+0.244*[#   8]+0.010*[#   1]
          +0.010*[#   5]
    |psi|^2 = 0.994
==== e(   5) =     2.18292 eV ==== 
     psi = 0.008*[#   3]+0.008*[#   4]+0.008*[#   7]+0.008*[#   8]
    |psi|^2 = 0.031
==== e(   6) =     2.83787 eV ==== 
     psi = 0.004*[#   2]+0.004*[#   6]
    |psi|^2 = 0.009
==== e(   7) =     2.99074 eV ==== 

    |psi|^2 = 0.003
==== e(   8) =     3.96611 eV ==== 
     psi = 0.032*[#   2]+0.032*[#   6]
    |psi|^2 = 0.064

 k =   0.0833333333  0.2726376271  0.0000000000
==== e(   1) =   -19.93207 eV ==== 
     psi = 0.363*[#   1]+0.363*[#   5]+0.064*[#   3]+0.064*[#   4]+0.064*[#   7]
          +0.064*[#   8]
    |psi|^2 = 0.984
==== e(   2) =    -9.77571 eV ==== 
     psi = 0.199*[#   3]+0.199*[#   4]+0.199*[#   7]+0.199*[#   8]+0.100*[#   1]
          +0.100*[#   5]
    |psi|^2 = 0.995
==== e(   3) =    -8.04700 eV ==== 
     psi = 0.490*[#   2]+0.490*[#   6]
    |psi|^2 = 0.981
==== e(   4) =    -7.96533 eV ==== 
     psi = 0.243*[#   3]+0.243*[#   4]+0.243*[#   7]+0.243*[#   8]+0.011*[#   1]
          +0.011*[#   5]
    |psi|^2 = 0.994
==== e(   5) =     2.54237 eV ==== 
     psi = 0.007*[#   3]+0.007*[#   4]+0.007*[#   7]+0.007*[#   8]
    |psi|^2 = 0.029
==== e(   6) =     3.19104 eV ==== 
     psi = 0.016*[#   2]+0.016*[#   6]
    |psi|^2 = 0.032
==== e(   7) =     3.35806 eV ==== 

    |psi|^2 = 0.003
==== e(   8) =     3.56697 eV ==== 
     psi = 0.469*[#   2]+0.469*[#   6]
    |psi|^2 = 0.938

 k =   0.0833333333  0.3047126421  0.0000000000
==== e(   1) =   -19.63898 eV ==== 
     psi = 0.348*[#   1]+0.348*[#   5]+0.072*[#   3]+0.072*[#   4]+0.072*[#   7]
          +0.072*[#   8]
    |psi|^2 = 0.983
==== e(   2) =   -10.41625 eV ==== 
     psi = 0.192*[#   3]+0.192*[#   4]+0.192*[#   7]+0.192*[#   8]+0.112*[#   1]
          +0.112*[#   5]
    |psi|^2 = 0.994
==== e(   3) =    -8.22937 eV ==== 
     psi = 0.243*[#   3]+0.243*[#   4]+0.243*[#   7]+0.243*[#   8]+0.012*[#   1]
          +0.012*[#   5]
    |psi|^2 = 0.994
==== e(   4) =    -7.71886 eV ==== 
     psi = 0.492*[#   2]+0.492*[#   6]
    |psi|^2 = 0.985
==== e(   5) =     2.94304 eV ==== 
     psi = 0.475*[#   2]+0.475*[#   6]
    |psi|^2 = 0.949
==== e(   6) =     2.94605 eV ==== 
     psi = 0.006*[#   3]+0.006*[#   4]+0.006*[#   7]+0.006*[#   8]
    |psi|^2 = 0.025
==== e(   7) =     3.61948 eV ==== 
     psi = 0.011*[#   2]+0.011*[#   6]
    |psi|^2 = 0.022
==== e(   8) =     3.77101 eV ==== 

    |psi|^2 = 0.002

 k =   0.0833333333  0.3367876570  0.0000000000
==== e(   1) =   -19.31550 eV ==== 
     psi = 0.334*[#   1]+0.334*[#   5]+0.079*[#   3]+0.079*[#   4]+0.079*[#   7]
          +0.079*[#   8]
    |psi|^2 = 0.983
==== e(   2) =   -11.06772 eV ==== 
     psi = 0.186*[#   3]+0.186*[#   4]+0.186*[#   7]+0.186*[#   8]+0.123*[#   1]
          +0.123*[#   5]
    |psi|^2 = 0.993
==== e(   3) =    -8.47153 eV ==== 
     psi = 0.242*[#   3]+0.242*[#   4]+0.242*[#   7]+0.242*[#   8]+0.013*[#   1]
          +0.013*[#   5]
    |psi|^2 = 0.994
==== e(   4) =    -7.36100 eV ==== 
     psi = 0.494*[#   2]+0.494*[#   6]
    |psi|^2 = 0.988
==== e(   5) =     2.32428 eV ==== 
     psi = 0.480*[#   2]+0.480*[#   6]
    |psi|^2 = 0.960
==== e(   6) =     3.39322 eV ==== 
     psi = 0.005*[#   3]+0.005*[#   4]+0.005*[#   7]+0.005*[#   8]
    |psi|^2 = 0.019
==== e(   7) =     4.06702 eV ==== 
     psi = 0.004*[#   2]+0.004*[#   6]
    |psi|^2 = 0.008
==== e(   8) =     4.22627 eV ==== 
     psi = 0.008*[#   1]+0.008*[#   5]+0.001*[#   3]+0.001*[#   4]+0.001*[#   7]
          +0.001*[#   8]
    |psi|^2 = 0.021

 k =   0.0833333333  0.3688626720  0.0000000000
==== e(   1) =   -18.96271 eV ==== 
     psi = 0.322*[#   1]+0.322*[#   5]+0.085*[#   3]+0.085*[#   4]+0.085*[#   7]
          +0.085*[#   8]
    |psi|^2 = 0.984
==== e(   2) =   -11.72122 eV ==== 
     psi = 0.181*[#   3]+0.181*[#   4]+0.181*[#   7]+0.181*[#   8]+0.134*[#   1]
          +0.134*[#   5]
    |psi|^2 = 0.992
==== e(   3) =    -8.68865 eV ==== 
     psi = 0.242*[#   3]+0.242*[#   4]+0.242*[#   7]+0.242*[#   8]+0.013*[#   1]
          +0.013*[#   5]
    |psi|^2 = 0.995
==== e(   4) =    -6.97703 eV ==== 
     psi = 0.496*[#   2]+0.496*[#   6]
    |psi|^2 = 0.991
==== e(   5) =     1.69321 eV ==== 
     psi = 0.481*[#   2]+0.481*[#   6]
    |psi|^2 = 0.961
==== e(   6) =     3.87955 eV ==== 
     psi = 0.005*[#   1]+0.005*[#   5]+0.001*[#   3]+0.001*[#   4]+0.001*[#   7]
          +0.001*[#   8]
    |psi|^2 = 0.016
==== e(   7) =     4.24467 eV ==== 
     psi = 0.258*[#   1]+0.258*[#   5]+0.096*[#   3]+0.096*[#   4]+0.096*[#   7]
          +0.096*[#   8]
    |psi|^2 = 0.901
==== e(   8) =     4.56189 eV ==== 
     psi = 0.003*[#   2]+0.003*[#   6]
    |psi|^2 = 0.006

 k =   0.0833333333  0.4009376869  0.0000000000
==== e(   1) =   -18.58219 eV ==== 
     psi = 0.311*[#   1]+0.311*[#   5]+0.090*[#   3]+0.090*[#   4]+0.090*[#   7]
          +0.090*[#   8]
    |psi|^2 = 0.984
==== e(   2) =   -12.36901 eV ==== 
     psi = 0.176*[#   3]+0.176*[#   4]+0.176*[#   7]+0.176*[#   8]+0.143*[#   1]
          +0.143*[#   5]
    |psi|^2 = 0.991
==== e(   3) =    -8.87833 eV ==== 
     psi = 0.242*[#   3]+0.242*[#   4]+0.242*[#   7]+0.242*[#   8]+0.013*[#   1]
          +0.013*[#   5]
    |psi|^2 = 0.995
==== e(   4) =    -6.57234 eV ==== 
     psi = 0.497*[#   2]+0.497*[#   6]
    |psi|^2 = 0.994
==== e(   5) =     1.06426 eV ==== 
     psi = 0.481*[#   2]+0.481*[#   6]
    |psi|^2 = 0.961
==== e(   6) =     4.11024 eV ==== 
     psi = 0.267*[#   1]+0.267*[#   5]+0.076*[#   3]+0.076*[#   4]+0.076*[#   7]
          +0.076*[#   8]
    |psi|^2 = 0.839
==== e(   7) =     4.43564 eV ==== 
     psi = 0.014*[#   3]+0.014*[#   4]+0.014*[#   7]+0.014*[#   8]+0.011*[#   1]
          +0.011*[#   5]
    |psi|^2 = 0.080
==== e(   8) =     5.10061 eV ==== 
     psi = 0.002*[#   2]+0.002*[#   6]
    |psi|^2 = 0.004

 k =   0.0833333333  0.4330127019  0.0000000000
==== e(   1) =   -18.17651 eV ==== 
     psi = 0.302*[#   1]+0.302*[#   5]+0.095*[#   3]+0.095*[#   4]+0.095*[#   7]
          +0.095*[#   8]
    |psi|^2 = 0.985
==== e(   2) =   -13.00373 eV ==== 
     psi = 0.172*[#   3]+0.172*[#   4]+0.172*[#   7]+0.172*[#   8]+0.151*[#   1]
          +0.151*[#   5]
    |psi|^2 = 0.990
==== e(   3) =    -9.03877 eV ==== 
     psi = 0.242*[#   3]+0.242*[#   4]+0.242*[#   7]+0.242*[#   8]+0.014*[#   1]
          +0.014*[#   5]
    |psi|^2 = 0.995
==== e(   4) =    -6.15536 eV ==== 
     psi = 0.498*[#   2]+0.498*[#   6]
    |psi|^2 = 0.995
==== e(   5) =     0.45170 eV ==== 
     psi = 0.481*[#   2]+0.481*[#   6]
    |psi|^2 = 0.961
==== e(   6) =     4.01822 eV ==== 
     psi = 0.289*[#   1]+0.289*[#   5]+0.078*[#   3]+0.078*[#   4]+0.078*[#   7]
          +0.078*[#   8]
    |psi|^2 = 0.891
==== e(   7) =     5.00678 eV ==== 
     psi = 0.006*[#   3]+0.006*[#   4]+0.006*[#   7]+0.006*[#   8]+0.002*[#   1]
          +0.002*[#   5]
    |psi|^2 = 0.027
==== e(   8) =     5.68169 eV ==== 
     psi = 0.002*[#   2]+0.002*[#   6]
    |psi|^2 = 0.004

 k =   0.0833333333  0.4650877168  0.0000000000
==== e(   1) =   -17.75029 eV ==== 
     psi = 0.296*[#   1]+0.296*[#   5]+0.099*[#   3]+0.099*[#   4]+0.099*[#   7]
          +0.099*[#   8]
    |psi|^2 = 0.986
==== e(   2) =   -13.61710 eV ==== 
     psi = 0.169*[#   3]+0.169*[#   4]+0.169*[#   7]+0.169*[#   8]+0.156*[#   1]
          +0.156*[#   5]
    |psi|^2 = 0.988
==== e(   3) =    -9.16860 eV ==== 
     psi = 0.242*[#   3]+0.242*[#   4]+0.242*[#   7]+0.242*[#   8]+0.014*[#   1]
          +0.014*[#   5]
    |psi|^2 = 0.995
==== e(   4) =    -5.74005 eV ==== 
     psi = 0.498*[#   2]+0.498*[#   6]
    |psi|^2 = 0.996
==== e(   5) =    -0.12579 eV ==== 
     psi = 0.481*[#   2]+0.481*[#   6]
    |psi|^2 = 0.962
==== e(   6) =     3.93778 eV ==== 
     psi = 0.300*[#   1]+0.300*[#   5]+0.075*[#   3]+0.075*[#   4]+0.075*[#   7]
          +0.075*[#   8]
    |psi|^2 = 0.899
==== e(   7) =     5.62548 eV ==== 
     psi = 0.004*[#   3]+0.004*[#   4]+0.004*[#   7]+0.004*[#   8]
    |psi|^2 = 0.016
==== e(   8) =     6.30321 eV ==== 
     psi = 0.002*[#   2]+0.002*[#   6]
    |psi|^2 = 0.003

 k =   0.0833333333  0.4971627318  0.0000000000
==== e(   1) =   -17.31356 eV ==== 
     psi = 0.294*[#   1]+0.294*[#   5]+0.100*[#   3]+0.100*[#   4]+0.100*[#   7]
          +0.100*[#   8]
    |psi|^2 = 0.988
==== e(   2) =   -14.19640 eV ==== 
     psi = 0.168*[#   3]+0.168*[#   4]+0.168*[#   7]+0.168*[#   8]+0.158*[#   1]
          +0.158*[#   5]
    |psi|^2 = 0.987
==== e(   3) =    -9.26679 eV ==== 
     psi = 0.242*[#   3]+0.242*[#   4]+0.242*[#   7]+0.242*[#   8]+0.014*[#   1]
          +0.014*[#   5]
    |psi|^2 = 0.995
==== e(   4) =    -5.35057 eV ==== 
     psi = 0.498*[#   2]+0.498*[#   6]
    |psi|^2 = 0.997
==== e(   5) =    -0.64026 eV ==== 
     psi = 0.481*[#   2]+0.481*[#   6]
    |psi|^2 = 0.962
==== e(   6) =     3.87569 eV ==== 
     psi = 0.307*[#   1]+0.307*[#   5]+0.072*[#   3]+0.072*[#   4]+0.072*[#   7]
          +0.072*[#   8]
    |psi|^2 = 0.902
==== e(   7) =     6.28496 eV ==== 
     psi = 0.002*[#   3]+0.002*[#   4]+0.002*[#   7]+0.002*[#   8]
    |psi|^2 = 0.011
==== e(   8) =     6.96178 eV ==== 
     psi = 0.002*[#   2]+0.002*[#   6]
    |psi|^2 = 0.003

 k =   0.0833333333  0.5292377468  0.0000000000
==== e(   1) =   -16.89323 eV ==== 
     psi = 0.300*[#   1]+0.300*[#   5]+0.098*[#   3]+0.098*[#   4]+0.098*[#   7]
          +0.098*[#   8]
    |psi|^2 = 0.990
==== e(   2) =   -14.71278 eV ==== 
     psi = 0.170*[#   3]+0.170*[#   4]+0.170*[#   7]+0.170*[#   8]+0.151*[#   1]
          +0.151*[#   5]
    |psi|^2 = 0.984
==== e(   3) =    -9.33264 eV ==== 
     psi = 0.242*[#   3]+0.242*[#   4]+0.242*[#   7]+0.242*[#   8]+0.014*[#   1]
          +0.014*[#   5]
    |psi|^2 = 0.995
==== e(   4) =    -5.02879 eV ==== 
     psi = 0.499*[#   2]+0.499*[#   6]
    |psi|^2 = 0.997
==== e(   5) =    -1.04696 eV ==== 
     psi = 0.481*[#   2]+0.481*[#   6]
    |psi|^2 = 0.963
==== e(   6) =     3.83362 eV ==== 
     psi = 0.312*[#   1]+0.312*[#   5]+0.070*[#   3]+0.070*[#   4]+0.070*[#   7]
          +0.070*[#   8]
    |psi|^2 = 0.903
==== e(   7) =     6.98155 eV ==== 
     psi = 0.002*[#   3]+0.002*[#   4]+0.002*[#   7]+0.002*[#   8]+0.001*[#   1]
          +0.001*[#   5]
    |psi|^2 = 0.009
==== e(   8) =     7.64973 eV ==== 
     psi = 0.002*[#   2]+0.002*[#   6]
    |psi|^2 = 0.004

 k =   0.0833333333  0.5613127617  0.0000000000
==== e(   1) =   -16.57851 eV ==== 
     psi = 0.317*[#   1]+0.317*[#   5]+0.090*[#   3]+0.090*[#   4]+0.090*[#   7]
          +0.090*[#   8]
    |psi|^2 = 0.993
==== e(   2) =   -15.07582 eV ==== 
     psi = 0.178*[#   3]+0.178*[#   4]+0.178*[#   7]+0.178*[#   8]+0.135*[#   1]
          +0.135*[#   5]
    |psi|^2 = 0.981
==== e(   3) =    -9.36567 eV ==== 
     psi = 0.242*[#   3]+0.242*[#   4]+0.242*[#   7]+0.242*[#   8]+0.014*[#   1]
          +0.014*[#   5]
    |psi|^2 = 0.995
==== e(   4) =    -4.83811 eV ==== 
     psi = 0.499*[#   2]+0.499*[#   6]
    |psi|^2 = 0.998
==== e(   5) =    -1.28059 eV ==== 
     psi = 0.481*[#   2]+0.481*[#   6]
    |psi|^2 = 0.963
==== e(   6) =     3.81239 eV ==== 
     psi = 0.315*[#   1]+0.315*[#   5]+0.069*[#   3]+0.069*[#   4]+0.069*[#   7]
          +0.069*[#   8]
    |psi|^2 = 0.904
==== e(   7) =     7.70620 eV ==== 
     psi = 0.003*[#   1]+0.003*[#   5]+0.001*[#   3]+0.001*[#   4]+0.001*[#   7]
          +0.001*[#   8]
    |psi|^2 = 0.011
==== e(   8) =     8.33345 eV ==== 
     psi = 0.004*[#   2]+0.004*[#   6]
    |psi|^2 = 0.008

 k =   0.1111111111  0.1924500897  0.0000000000
==== e(   1) =   -20.44068 eV ==== 
     psi = 0.397*[#   1]+0.397*[#   5]+0.047*[#   3]+0.047*[#   4]+0.047*[#   7]
          +0.047*[#   8]
    |psi|^2 = 0.984
==== e(   2) =    -8.62340 eV ==== 
     psi = 0.486*[#   2]+0.486*[#   6]
    |psi|^2 = 0.972
==== e(   3) =    -8.48925 eV ==== 
     psi = 0.213*[#   3]+0.213*[#   4]+0.213*[#   7]+0.213*[#   8]+0.072*[#   1]
          +0.072*[#   5]
    |psi|^2 = 0.997
==== e(   4) =    -7.41679 eV ==== 
     psi = 0.243*[#   3]+0.243*[#   4]+0.243*[#   7]+0.243*[#   8]+0.010*[#   1]
          +0.010*[#   5]
    |psi|^2 = 0.993
==== e(   5) =     1.84555 eV ==== 
     psi = 0.008*[#   3]+0.008*[#   4]+0.008*[#   7]+0.008*[#   8]
    |psi|^2 = 0.031
==== e(   6) =     2.49896 eV ==== 
     psi = 0.005*[#   2]+0.005*[#   6]
    |psi|^2 = 0.009
==== e(   7) =     2.64632 eV ==== 

    |psi|^2 = 0.004
==== e(   8) =     3.63848 eV ==== 
     psi = 0.004*[#   2]+0.004*[#   6]
    |psi|^2 = 0.007

 k =   0.1111111111  0.2245251047  0.0000000000
==== e(   1) =   -20.22685 eV ==== 
     psi = 0.381*[#   1]+0.381*[#   5]+0.055*[#   3]+0.055*[#   4]+0.055*[#   7]
          +0.055*[#   8]
    |psi|^2 = 0.984
==== e(   2) =    -8.99920 eV ==== 
     psi = 0.207*[#   3]+0.207*[#   4]+0.207*[#   7]+0.207*[#   8]+0.084*[#   1]
          +0.084*[#   5]
    |psi|^2 = 0.997
==== e(   3) =    -8.37990 eV ==== 
     psi = 0.488*[#   2]+0.488*[#   6]
    |psi|^2 = 0.976
==== e(   4) =    -7.74686 eV ==== 
     psi = 0.242*[#   3]+0.242*[#   4]+0.242*[#   7]+0.242*[#   8]+0.013*[#   1]
          +0.013*[#   5]
    |psi|^2 = 0.993
==== e(   5) =     2.13805 eV ==== 
     psi = 0.008*[#   3]+0.008*[#   4]+0.008*[#   7]+0.008*[#   8]
    |psi|^2 = 0.032
==== e(   6) =     2.79341 eV ==== 
     psi = 0.004*[#   2]+0.004*[#   6]
    |psi|^2 = 0.008
==== e(   7) =     2.94487 eV ==== 

    |psi|^2 = 0.003
==== e(   8) =     3.93076 eV ==== 
     psi = 0.004*[#   2]+0.004*[#   6]
    |psi|^2 = 0.009

 k =   0.1111111111  0.2566001196  0.0000000000
==== e(   1) =   -19.98110 eV ==== 
     psi = 0.366*[#   1]+0.366*[#   5]+0.063*[#   3]+0.063*[#   4]+0.063*[#   7]
          +0.063*[#   8]
    |psi|^2 = 0.984
==== e(   2) =    -9.55513 eV ==== 
     psi = 0.201*[#   3]+0.201*[#   4]+0.201*[#   7]+0.201*[#   8]+0.096*[#   1]
          +0.096*[#   5]
    |psi|^2 = 0.996
==== e(   3) =    -8.10169 eV ==== 
     psi = 0.490*[#   2]+0.490*[#   6]
    |psi|^2 = 0.980
==== e(   4) =    -8.06744 eV ==== 
     psi = 0.241*[#   3]+0.241*[#   4]+0.241*[#   7]+0.241*[#   8]+0.015*[#   1]
          +0.015*[#   5]
    |psi|^2 = 0.993
==== e(   5) =     2.47521 eV ==== 
     psi = 0.008*[#   3]+0.008*[#   4]+0.008*[#   7]+0.008*[#   8]
    |psi|^2 = 0.030
==== e(   6) =     3.13114 eV ==== 
     psi = 0.005*[#   2]+0.005*[#   6]
    |psi|^2 = 0.010
==== e(   7) =     3.28930 eV ==== 

    |psi|^2 = 0.003
==== e(   8) =     3.68531 eV ==== 
     psi = 0.484*[#   2]+0.484*[#   6]
    |psi|^2 = 0.967

 k =   0.1111111111  0.2886751346  0.0000000000
==== e(   1) =   -19.70398 eV ==== 
     psi = 0.351*[#   1]+0.351*[#   5]+0.070*[#   3]+0.070*[#   4]+0.070*[#   7]
          +0.070*[#   8]
    |psi|^2 = 0.983
==== e(   2) =   -10.14708 eV ==== 
     psi = 0.195*[#   3]+0.195*[#   4]+0.195*[#   7]+0.195*[#   8]+0.109*[#   1]
          +0.109*[#   5]
    |psi|^2 = 0.995
==== e(   3) =    -8.36772 eV ==== 
     psi = 0.240*[#   3]+0.240*[#   4]+0.240*[#   7]+0.240*[#   8]+0.017*[#   1]
          +0.017*[#   5]
    |psi|^2 = 0.993
==== e(   4) =    -7.79031 eV ==== 
     psi = 0.492*[#   2]+0.492*[#   6]
    |psi|^2 = 0.984
==== e(   5) =     2.85679 eV ==== 
     psi = 0.007*[#   3]+0.007*[#   4]+0.007*[#   7]+0.007*[#   8]
    |psi|^2 = 0.027
==== e(   6) =     3.10672 eV ==== 
     psi = 0.477*[#   2]+0.477*[#   6]
    |psi|^2 = 0.954
==== e(   7) =     3.52403 eV ==== 
     psi = 0.011*[#   2]+0.011*[#   6]
    |psi|^2 = 0.022
==== e(   8) =     3.67957 eV ==== 

    |psi|^2 = 0.003

 k =   0.1111111111  0.3207501495  0.0000000000
==== e(   1) =   -19.39614 eV ==== 
     psi = 0.337*[#   1]+0.337*[#   5]+0.077*[#   3]+0.077*[#   4]+0.077*[#   7]
          +0.077*[#   8]
    |psi|^2 = 0.983
==== e(   2) =   -10.76357 eV ==== 
     psi = 0.189*[#   3]+0.189*[#   4]+0.189*[#   7]+0.189*[#   8]+0.120*[#   1]
          +0.120*[#   5]
    |psi|^2 = 0.994
==== e(   3) =    -8.64212 eV ==== 
     psi = 0.239*[#   3]+0.239*[#   4]+0.239*[#   7]+0.239*[#   8]+0.018*[#   1]
          +0.018*[#   5]
    |psi|^2 = 0.993
==== e(   4) =    -7.44787 eV ==== 
     psi = 0.494*[#   2]+0.494*[#   6]
    |psi|^2 = 0.988
==== e(   5) =     2.51524 eV ==== 
     psi = 0.483*[#   2]+0.483*[#   6]
    |psi|^2 = 0.966
==== e(   6) =     3.28244 eV ==== 
     psi = 0.006*[#   3]+0.006*[#   4]+0.006*[#   7]+0.006*[#   8]
    |psi|^2 = 0.023
==== e(   7) =     3.94962 eV ==== 
     psi = 0.004*[#   2]+0.004*[#   6]
    |psi|^2 = 0.007
==== e(   8) =     4.11548 eV ==== 

    |psi|^2 = 0.002

 k =   0.1111111111  0.3528251645  0.0000000000
==== e(   1) =   -19.05853 eV ==== 
     psi = 0.325*[#   1]+0.325*[#   5]+0.084*[#   3]+0.084*[#   4]+0.084*[#   7]
          +0.084*[#   8]
    |psi|^2 = 0.984
==== e(   2) =   -11.39353 eV ==== 
     psi = 0.183*[#   3]+0.183*[#   4]+0.183*[#   7]+0.183*[#   8]+0.131*[#   1]
          +0.131*[#   5]
    |psi|^2 = 0.993
==== e(   3) =    -8.88777 eV ==== 
     psi = 0.239*[#   3]+0.239*[#   4]+0.239*[#   7]+0.239*[#   8]+0.019*[#   1]
          +0.019*[#   5]
    |psi|^2 = 0.993
==== e(   4) =    -7.07731 eV ==== 
     psi = 0.495*[#   2]+0.495*[#   6]
    |psi|^2 = 0.991
==== e(   5) =     1.90593 eV ==== 
     psi = 0.483*[#   2]+0.483*[#   6]
    |psi|^2 = 0.966
==== e(   6) =     3.75138 eV ==== 
     psi = 0.004*[#   3]+0.004*[#   4]+0.004*[#   7]+0.004*[#   8]
    |psi|^2 = 0.017
==== e(   7) =     4.42183 eV ==== 
     psi = 0.003*[#   2]+0.003*[#   6]
    |psi|^2 = 0.005
==== e(   8) =     4.59478 eV ==== 
     psi = 0.004*[#   1]+0.004*[#   5]
    |psi|^2 = 0.011

 k =   0.1111111111  0.3849001795  0.0000000000
==== e(   1) =   -18.69244 eV ==== 
     psi = 0.314*[#   1]+0.314*[#   5]+0.089*[#   3]+0.089*[#   4]+0.089*[#   7]
          +0.089*[#   8]
    |psi|^2 = 0.984
==== e(   2) =   -12.02715 eV ==== 
     psi = 0.178*[#   3]+0.178*[#   4]+0.178*[#   7]+0.178*[#   8]+0.140*[#   1]
          +0.140*[#   5]
    |psi|^2 = 0.992
==== e(   3) =    -9.10302 eV ==== 
     psi = 0.238*[#   3]+0.238*[#   4]+0.238*[#   7]+0.238*[#   8]+0.020*[#   1]
          +0.020*[#   5]
    |psi|^2 = 0.993
==== e(   4) =    -6.68291 eV ==== 
     psi = 0.496*[#   2]+0.496*[#   6]
    |psi|^2 = 0.993
==== e(   5) =     1.29135 eV ==== 
     psi = 0.483*[#   2]+0.483*[#   6]
    |psi|^2 = 0.966
==== e(   6) =     4.25982 eV ==== 
     psi = 0.004*[#   1]+0.004*[#   5]+0.002*[#   3]+0.002*[#   4]+0.002*[#   7]
          +0.002*[#   8]
    |psi|^2 = 0.014
==== e(   7) =     4.66440 eV ==== 
     psi = 0.253*[#   1]+0.253*[#   5]+0.097*[#   3]+0.097*[#   4]+0.097*[#   7]
          +0.097*[#   8]
    |psi|^2 = 0.894
==== e(   8) =     4.93747 eV ==== 
     psi = 0.002*[#   2]+0.002*[#   6]
    |psi|^2 = 0.004

 k =   0.1111111111  0.4169751944  0.0000000000
==== e(   1) =   -18.29988 eV ==== 
     psi = 0.304*[#   1]+0.304*[#   5]+0.094*[#   3]+0.094*[#   4]+0.094*[#   7]
          +0.094*[#   8]
    |psi|^2 = 0.985
==== e(   2) =   -12.65568 eV ==== 
     psi = 0.173*[#   3]+0.173*[#   4]+0.173*[#   7]+0.173*[#   8]+0.149*[#   1]
          +0.149*[#   5]
    |psi|^2 = 0.991
==== e(   3) =    -9.28674 eV ==== 
     psi = 0.238*[#   3]+0.238*[#   4]+0.238*[#   7]+0.238*[#   8]+0.021*[#   1]
          +0.021*[#   5]
    |psi|^2 = 0.994
==== e(   4) =    -6.27116 eV ==== 
     psi = 0.497*[#   2]+0.497*[#   6]
    |psi|^2 = 0.995
==== e(   5) =     0.68353 eV ==== 
     psi = 0.483*[#   2]+0.483*[#   6]
    |psi|^2 = 0.966
==== e(   6) =     4.53774 eV ==== 
     psi = 0.259*[#   1]+0.259*[#   5]+0.078*[#   3]+0.078*[#   4]+0.078*[#   7]
          +0.078*[#   8]
    |psi|^2 = 0.831
==== e(   7) =     4.83684 eV ==== 
     psi = 0.014*[#   3]+0.014*[#   4]+0.014*[#   7]+0.014*[#   8]+0.013*[#   1]
          +0.013*[#   5]
    |psi|^2 = 0.080
==== e(   8) =     5.49508 eV ==== 
     psi = 0.002*[#   2]+0.002*[#   6]
    |psi|^2 = 0.003

 k =   0.1111111111  0.4490502094  0.0000000000
==== e(   1) =   -17.88423 eV ==== 
     psi = 0.296*[#   1]+0.296*[#   5]+0.098*[#   3]+0.098*[#   4]+0.098*[#   7]
          +0.098*[#   8]
    |psi|^2 = 0.986
==== e(   2) =   -13.27053 eV ==== 
     psi = 0.170*[#   3]+0.170*[#   4]+0.170*[#   7]+0.170*[#   8]+0.156*[#   1]
          +0.156*[#   5]
[...]
          +0.029*[#   5]
    |psi|^2 = 0.988
==== e(   4) =    -5.65644 eV ==== 
     psi = 0.498*[#   2]+0.498*[#   6]
    |psi|^2 = 0.996
==== e(   5) =     0.08229 eV ==== 
     psi = 0.491*[#   2]+0.491*[#   6]
    |psi|^2 = 0.982
==== e(   6) =     5.61428 eV ==== 
     psi = 0.002*[#   3]+0.002*[#   4]+0.002*[#   7]+0.002*[#   8]
    |psi|^2 = 0.008
==== e(   7) =     6.23213 eV ==== 

    |psi|^2 = 0.001
==== e(   8) =     6.52324 eV ==== 

    |psi|^2 = 0.002

 k =   0.2222222222  0.4490502094  0.0000000000
==== e(   1) =   -17.33460 eV ==== 
     psi = 0.281*[#   1]+0.281*[#   5]+0.106*[#   3]+0.106*[#   4]+0.106*[#   7]
          +0.106*[#   8]
    |psi|^2 = 0.987
==== e(   2) =   -13.16523 eV ==== 
     psi = 0.181*[#   1]+0.181*[#   5]+0.158*[#   3]+0.158*[#   4]+0.158*[#   7]
          +0.158*[#   8]
    |psi|^2 = 0.994
==== e(   3) =   -10.97743 eV ==== 
     psi = 0.232*[#   3]+0.232*[#   4]+0.232*[#   7]+0.232*[#   8]+0.030*[#   1]
          +0.030*[#   5]
    |psi|^2 = 0.988
==== e(   4) =    -5.23859 eV ==== 
     psi = 0.498*[#   2]+0.498*[#   6]
    |psi|^2 = 0.996
==== e(   5) =    -0.41997 eV ==== 
     psi = 0.492*[#   2]+0.492*[#   6]
    |psi|^2 = 0.983
==== e(   6) =     6.20116 eV ==== 
     psi = 0.003*[#   1]+0.003*[#   5]+0.001*[#   3]+0.001*[#   4]+0.001*[#   7]
          +0.001*[#   8]
    |psi|^2 = 0.010
==== e(   7) =     6.76982 eV ==== 

    |psi|^2 = 0.000
==== e(   8) =     7.08006 eV ==== 
     psi = 0.189*[#   1]+0.189*[#   5]+0.077*[#   3]+0.077*[#   4]+0.077*[#   7]
          +0.077*[#   8]
    |psi|^2 = 0.686

 k =   0.2222222222  0.4811252243  0.0000000000
==== e(   1) =   -16.91171 eV ==== 
     psi = 0.276*[#   1]+0.276*[#   5]+0.109*[#   3]+0.109*[#   4]+0.109*[#   7]
          +0.109*[#   8]
    |psi|^2 = 0.988
==== e(   2) =   -13.65243 eV ==== 
     psi = 0.185*[#   1]+0.185*[#   5]+0.155*[#   3]+0.155*[#   4]+0.155*[#   7]
          +0.155*[#   8]
    |psi|^2 = 0.993
==== e(   3) =   -11.17277 eV ==== 
     psi = 0.231*[#   3]+0.231*[#   4]+0.231*[#   7]+0.231*[#   8]+0.031*[#   1]
          +0.031*[#   5]
    |psi|^2 = 0.988
==== e(   4) =    -4.82253 eV ==== 
     psi = 0.498*[#   2]+0.498*[#   6]
    |psi|^2 = 0.997
==== e(   5) =    -0.90323 eV ==== 
     psi = 0.492*[#   2]+0.492*[#   6]
    |psi|^2 = 0.984
==== e(   6) =     6.79999 eV ==== 
     psi = 0.037*[#   1]+0.037*[#   5]+0.010*[#   3]+0.010*[#   4]+0.010*[#   7]
          +0.010*[#   8]
    |psi|^2 = 0.114
==== e(   7) =     7.03908 eV ==== 
     psi = 0.206*[#   1]+0.206*[#   5]+0.083*[#   3]+0.083*[#   4]+0.083*[#   7]
          +0.083*[#   8]
    |psi|^2 = 0.746
==== e(   8) =     7.27792 eV ==== 

    |psi|^2 = 0.001

 k =   0.2222222222  0.5132002393  0.0000000000
==== e(   1) =   -16.48710 eV ==== 
     psi = 0.274*[#   1]+0.274*[#   5]+0.110*[#   3]+0.110*[#   4]+0.110*[#   7]
          +0.110*[#   8]
    |psi|^2 = 0.990
==== e(   2) =   -14.13133 eV ==== 
     psi = 0.186*[#   1]+0.186*[#   5]+0.155*[#   3]+0.155*[#   4]+0.155*[#   7]
          +0.155*[#   8]
    |psi|^2 = 0.991
==== e(   3) =   -11.30680 eV ==== 
     psi = 0.231*[#   3]+0.231*[#   4]+0.231*[#   7]+0.231*[#   8]+0.033*[#   1]
          +0.033*[#   5]
    |psi|^2 = 0.988
==== e(   4) =    -4.43482 eV ==== 
     psi = 0.498*[#   2]+0.498*[#   6]
    |psi|^2 = 0.997
==== e(   5) =    -1.33989 eV ==== 
     psi = 0.492*[#   2]+0.492*[#   6]
    |psi|^2 = 0.984
==== e(   6) =     6.93307 eV ==== 
     psi = 0.241*[#   1]+0.241*[#   5]+0.086*[#   3]+0.086*[#   4]+0.086*[#   7]
          +0.086*[#   8]
    |psi|^2 = 0.828
==== e(   7) =     7.49980 eV ==== 
     psi = 0.010*[#   1]+0.010*[#   5]+0.005*[#   3]+0.005*[#   4]+0.005*[#   7]
          +0.005*[#   8]
    |psi|^2 = 0.039
==== e(   8) =     7.67269 eV ==== 
     psi = 0.001*[#   2]+0.001*[#   6]
    |psi|^2 = 0.003

 k =   0.2222222222  0.5452752542  0.0000000000
==== e(   1) =   -16.10368 eV ==== 
     psi = 0.280*[#   1]+0.280*[#   5]+0.108*[#   3]+0.108*[#   4]+0.108*[#   7]
          +0.108*[#   8]
    |psi|^2 = 0.992
==== e(   2) =   -14.55069 eV ==== 
     psi = 0.180*[#   1]+0.180*[#   5]+0.157*[#   3]+0.157*[#   4]+0.157*[#   7]
          +0.157*[#   8]
    |psi|^2 = 0.989
==== e(   3) =   -11.38496 eV ==== 
     psi = 0.230*[#   3]+0.230*[#   4]+0.230*[#   7]+0.230*[#   8]+0.034*[#   1]
          +0.034*[#   5]
    |psi|^2 = 0.988
==== e(   4) =    -4.13100 eV ==== 
     psi = 0.498*[#   2]+0.498*[#   6]
    |psi|^2 = 0.997
==== e(   5) =    -1.67349 eV ==== 
     psi = 0.492*[#   2]+0.492*[#   6]
    |psi|^2 = 0.984
==== e(   6) =     6.90416 eV ==== 
     psi = 0.248*[#   1]+0.248*[#   5]+0.087*[#   3]+0.087*[#   4]+0.087*[#   7]
          +0.087*[#   8]
    |psi|^2 = 0.845
==== e(   7) =     7.88356 eV ==== 
     psi = 0.003*[#   2]+0.003*[#   6]
    |psi|^2 = 0.005
==== e(   8) =     8.15074 eV ==== 
     psi = 0.012*[#   1]+0.012*[#   5]+0.005*[#   3]+0.005*[#   4]+0.005*[#   7]
          +0.005*[#   8]
    |psi|^2 = 0.044

 k =   0.2222222222  0.5773502692  0.0000000000
==== e(   1) =   -15.91454 eV ==== 
     psi = 0.289*[#   1]+0.289*[#   5]+0.104*[#   3]+0.104*[#   4]+0.104*[#   7]
          +0.104*[#   8]
    |psi|^2 = 0.994
==== e(   2) =   -14.75236 eV ==== 
     psi = 0.171*[#   1]+0.171*[#   5]+0.161*[#   3]+0.161*[#   4]+0.161*[#   7]
          +0.161*[#   8]
    |psi|^2 = 0.987
==== e(   3) =   -11.41063 eV ==== 
     psi = 0.230*[#   3]+0.230*[#   4]+0.230*[#   7]+0.230*[#   8]+0.034*[#   1]
          +0.034*[#   5]
    |psi|^2 = 0.988
==== e(   4) =    -4.00813 eV ==== 
     psi = 0.499*[#   2]+0.499*[#   6]
    |psi|^2 = 0.997
==== e(   5) =    -1.80636 eV ==== 
     psi = 0.492*[#   2]+0.492*[#   6]
    |psi|^2 = 0.984
==== e(   6) =     6.89332 eV ==== 
     psi = 0.249*[#   1]+0.249*[#   5]+0.087*[#   3]+0.087*[#   4]+0.087*[#   7]
          +0.087*[#   8]
    |psi|^2 = 0.846
==== e(   7) =     7.94193 eV ==== 
     psi = 0.003*[#   2]+0.003*[#   6]
    |psi|^2 = 0.006
==== e(   8) =     8.64542 eV ==== 
     psi = 0.036*[#   1]+0.036*[#   5]+0.015*[#   3]+0.015*[#   4]+0.015*[#   7]
          +0.015*[#   8]
    |psi|^2 = 0.130

 k =   0.2500000000  0.4330127019  0.0000000000
==== e(   1) =   -17.34858 eV ==== 
     psi = 0.281*[#   1]+0.281*[#   5]+0.106*[#   3]+0.106*[#   4]+0.106*[#   7]
          +0.106*[#   8]
    |psi|^2 = 0.987
==== e(   2) =   -13.06411 eV ==== 
     psi = 0.185*[#   1]+0.185*[#   5]+0.156*[#   3]+0.156*[#   4]+0.156*[#   7]
          +0.156*[#   8]
    |psi|^2 = 0.995
==== e(   3) =   -11.08512 eV ==== 
     psi = 0.234*[#   3]+0.234*[#   4]+0.234*[#   7]+0.234*[#   8]+0.026*[#   1]
          +0.026*[#   5]
    |psi|^2 = 0.987
==== e(   4) =    -5.24657 eV ==== 
     psi = 0.498*[#   2]+0.498*[#   6]
    |psi|^2 = 0.996
==== e(   5) =    -0.39271 eV ==== 
     psi = 0.492*[#   2]+0.492*[#   6]
    |psi|^2 = 0.985
==== e(   6) =     6.18070 eV ==== 
     psi = 0.002*[#   1]+0.002*[#   5]+0.001*[#   3]+0.001*[#   4]+0.001*[#   7]
          +0.001*[#   8]
    |psi|^2 = 0.008
==== e(   7) =     6.74171 eV ==== 

    |psi|^2 = 0.000
==== e(   8) =     7.11781 eV ==== 

    |psi|^2 = 0.003

 k =   0.2500000000  0.4650877168  0.0000000000
==== e(   1) =   -16.93654 eV ==== 
     psi = 0.275*[#   1]+0.275*[#   5]+0.110*[#   3]+0.110*[#   4]+0.110*[#   7]
          +0.110*[#   8]
    |psi|^2 = 0.988
==== e(   2) =   -13.46775 eV ==== 
     psi = 0.195*[#   1]+0.195*[#   5]+0.151*[#   3]+0.151*[#   4]+0.151*[#   7]
          +0.151*[#   8]
    |psi|^2 = 0.994
==== e(   3) =   -11.37937 eV ==== 
     psi = 0.234*[#   3]+0.234*[#   4]+0.234*[#   7]+0.234*[#   8]+0.025*[#   1]
          +0.025*[#   5]
    |psi|^2 = 0.986
==== e(   4) =    -4.82792 eV ==== 
     psi = 0.498*[#   2]+0.498*[#   6]
    |psi|^2 = 0.996
==== e(   5) =    -0.86313 eV ==== 
     psi = 0.493*[#   2]+0.493*[#   6]
    |psi|^2 = 0.986
==== e(   6) =     6.77957 eV ==== 
     psi = 0.005*[#   1]+0.005*[#   5]+0.001*[#   3]+0.001*[#   4]+0.001*[#   7]
          +0.001*[#   8]
    |psi|^2 = 0.014
==== e(   7) =     7.21278 eV ==== 

    |psi|^2 = 0.000
==== e(   8) =     7.71566 eV ==== 
     psi = 0.164*[#   1]+0.164*[#   5]+0.065*[#   3]+0.065*[#   4]+0.065*[#   7]
          +0.065*[#   8]
    |psi|^2 = 0.586

 k =   0.2500000000  0.4971627318  0.0000000000
==== e(   1) =   -16.51408 eV ==== 
     psi = 0.270*[#   1]+0.270*[#   5]+0.112*[#   3]+0.112*[#   4]+0.112*[#   7]
          +0.112*[#   8]
    |psi|^2 = 0.989
==== e(   2) =   -13.89543 eV ==== 
     psi = 0.200*[#   1]+0.200*[#   5]+0.148*[#   3]+0.148*[#   4]+0.148*[#   7]
          +0.148*[#   8]
    |psi|^2 = 0.993
==== e(   3) =   -11.59300 eV ==== 
     psi = 0.234*[#   3]+0.234*[#   4]+0.234*[#   7]+0.234*[#   8]+0.025*[#   1]
          +0.025*[#   5]
    |psi|^2 = 0.986
==== e(   4) =    -4.41624 eV ==== 
     psi = 0.498*[#   2]+0.498*[#   6]
    |psi|^2 = 0.996
==== e(   5) =    -1.31355 eV ==== 
     psi = 0.494*[#   2]+0.494*[#   6]
    |psi|^2 = 0.987
==== e(   6) =     7.38401 eV ==== 
     psi = 0.032*[#   1]+0.032*[#   5]+0.010*[#   3]+0.010*[#   4]+0.010*[#   7]
          +0.010*[#   8]
    |psi|^2 = 0.102
==== e(   7) =     7.55637 eV ==== 

    |psi|^2 = 0.001
==== e(   8) =     7.69431 eV ==== 
     psi = 0.210*[#   1]+0.210*[#   5]+0.084*[#   3]+0.084*[#   4]+0.084*[#   7]
          +0.084*[#   8]
    |psi|^2 = 0.754

 k =   0.2500000000  0.5292377468  0.0000000000
==== e(   1) =   -16.10280 eV ==== 
     psi = 0.270*[#   1]+0.270*[#   5]+0.113*[#   3]+0.113*[#   4]+0.113*[#   7]
          +0.113*[#   8]
    |psi|^2 = 0.991
==== e(   2) =   -14.31764 eV ==== 
     psi = 0.201*[#   1]+0.201*[#   5]+0.148*[#   3]+0.148*[#   4]+0.148*[#   7]
          +0.148*[#   8]
    |psi|^2 = 0.992
==== e(   3) =   -11.73004 eV ==== 
     psi = 0.233*[#   3]+0.233*[#   4]+0.233*[#   7]+0.233*[#   8]+0.026*[#   1]
          +0.026*[#   5]
    |psi|^2 = 0.986
==== e(   4) =    -4.04599 eV ==== 
     psi = 0.498*[#   2]+0.498*[#   6]
    |psi|^2 = 0.996
==== e(   5) =    -1.70964 eV ==== 
     psi = 0.494*[#   2]+0.494*[#   6]
    |psi|^2 = 0.988
==== e(   6) =     7.58979 eV ==== 
     psi = 0.227*[#   1]+0.227*[#   5]+0.085*[#   3]+0.085*[#   4]+0.085*[#   7]
          +0.085*[#   8]
    |psi|^2 = 0.793
==== e(   7) =     7.72166 eV ==== 
     psi = 0.001*[#   2]+0.001*[#   6]
    |psi|^2 = 0.002
==== e(   8) =     8.07954 eV ==== 
     psi = 0.023*[#   1]+0.023*[#   5]+0.009*[#   3]+0.009*[#   4]+0.009*[#   7]
          +0.009*[#   8]
    |psi|^2 = 0.084

 k =   0.2500000000  0.5613127617  0.0000000000
==== e(   1) =   -15.78092 eV ==== 
     psi = 0.277*[#   1]+0.277*[#   5]+0.110*[#   3]+0.110*[#   4]+0.110*[#   7]
          +0.110*[#   8]
    |psi|^2 = 0.993
==== e(   2) =   -14.64751 eV ==== 
     psi = 0.193*[#   1]+0.193*[#   5]+0.151*[#   3]+0.151*[#   4]+0.151*[#   7]
          +0.151*[#   8]
    |psi|^2 = 0.990
==== e(   3) =   -11.79663 eV ==== 
     psi = 0.233*[#   3]+0.233*[#   4]+0.233*[#   7]+0.233*[#   8]+0.027*[#   1]
          +0.027*[#   5]
    |psi|^2 = 0.986
==== e(   4) =    -3.79826 eV ==== 
     psi = 0.498*[#   2]+0.498*[#   6]
    |psi|^2 = 0.997
==== e(   5) =    -1.97031 eV ==== 
     psi = 0.494*[#   2]+0.494*[#   6]
    |psi|^2 = 0.988
==== e(   6) =     7.57696 eV ==== 
     psi = 0.236*[#   1]+0.236*[#   5]+0.088*[#   3]+0.088*[#   4]+0.088*[#   7]
          +0.088*[#   8]
    |psi|^2 = 0.821
==== e(   7) =     7.77239 eV ==== 
     psi = 0.002*[#   2]+0.002*[#   6]
    |psi|^2 = 0.003
==== e(   8) =     8.63966 eV ==== 
     psi = 0.039*[#   1]+0.039*[#   5]+0.016*[#   3]+0.016*[#   4]+0.016*[#   7]
          +0.016*[#   8]
    |psi|^2 = 0.142

 k =   0.2777777778  0.4811252243  0.0000000000
==== e(   1) =   -16.52364 eV ==== 
     psi = 0.269*[#   1]+0.269*[#   5]+0.113*[#   3]+0.113*[#   4]+0.113*[#   7]
          +0.113*[#   8]
    |psi|^2 = 0.989
==== e(   2) =   -13.79984 eV ==== 
     psi = 0.207*[#   1]+0.207*[#   5]+0.145*[#   3]+0.145*[#   4]+0.145*[#   7]
          +0.145*[#   8]
    |psi|^2 = 0.994
==== e(   3) =   -11.70524 eV ==== 
     psi = 0.236*[#   3]+0.236*[#   4]+0.236*[#   7]+0.236*[#   8]+0.020*[#   1]
          +0.020*[#   5]
    |psi|^2 = 0.985
==== e(   4) =    -4.41046 eV ==== 
     psi = 0.498*[#   2]+0.498*[#   6]
    |psi|^2 = 0.996
==== e(   5) =    -1.30347 eV ==== 
     psi = 0.494*[#   2]+0.494*[#   6]
    |psi|^2 = 0.989
==== e(   6) =     7.38118 eV ==== 
     psi = 0.010*[#   1]+0.010*[#   5]+0.002*[#   3]+0.002*[#   4]+0.002*[#   7]
          +0.002*[#   8]
    |psi|^2 = 0.030
==== e(   7) =     7.51612 eV ==== 

    |psi|^2 = 0.000
==== e(   8) =     8.15756 eV ==== 
     psi = 0.250*[#   1]+0.250*[#   5]+0.090*[#   3]+0.090*[#   4]+0.090*[#   7]
          +0.090*[#   8]
    |psi|^2 = 0.861

 k =   0.2777777778  0.5132002393  0.0000000000
==== e(   1) =   -16.10736 eV ==== 
     psi = 0.265*[#   1]+0.265*[#   5]+0.115*[#   3]+0.115*[#   4]+0.115*[#   7]
          +0.115*[#   8]
    |psi|^2 = 0.991
==== e(   2) =   -14.16035 eV ==== 
     psi = 0.216*[#   1]+0.216*[#   5]+0.141*[#   3]+0.141*[#   4]+0.141*[#   7]
          +0.141*[#   8]
    |psi|^2 = 0.994
==== e(   3) =   -11.93952 eV ==== 
     psi = 0.238*[#   3]+0.238*[#   4]+0.238*[#   7]+0.238*[#   8]+0.017*[#   1]
          +0.017*[#   5]
    |psi|^2 = 0.984
==== e(   4) =    -4.00317 eV ==== 
     psi = 0.498*[#   2]+0.498*[#   6]
    |psi|^2 = 0.996
==== e(   5) =    -1.72581 eV ==== 
     psi = 0.495*[#   2]+0.495*[#   6]
    |psi|^2 = 0.990
==== e(   6) =     7.63492 eV ==== 

    |psi|^2 = 0.001
==== e(   7) =     7.96503 eV ==== 
     psi = 0.042*[#   1]+0.042*[#   5]+0.014*[#   3]+0.014*[#   4]+0.014*[#   7]
          +0.014*[#   8]
    |psi|^2 = 0.142
==== e(   8) =     8.24952 eV ==== 
     psi = 0.211*[#   1]+0.211*[#   5]+0.081*[#   3]+0.081*[#   4]+0.081*[#   7]
          +0.081*[#   8]
    |psi|^2 = 0.746

 k =   0.2777777778  0.5452752542  0.0000000000
==== e(   1) =   -15.72114 eV ==== 
     psi = 0.266*[#   1]+0.266*[#   5]+0.115*[#   3]+0.115*[#   4]+0.115*[#   7]
          +0.115*[#   8]
    |psi|^2 = 0.992
==== e(   2) =   -14.51635 eV ==== 
     psi = 0.218*[#   1]+0.218*[#   5]+0.139*[#   3]+0.139*[#   4]+0.139*[#   7]
          +0.139*[#   8]
    |psi|^2 = 0.993
==== e(   3) =   -12.07818 eV ==== 
     psi = 0.238*[#   3]+0.238*[#   4]+0.238*[#   7]+0.238*[#   8]+0.015*[#   1]
          +0.015*[#   5]
    |psi|^2 = 0.984
==== e(   4) =    -3.65131 eV ==== 
     psi = 0.498*[#   2]+0.498*[#   6]
    |psi|^2 = 0.996
==== e(   5) =    -2.08618 eV ==== 
     psi = 0.495*[#   2]+0.495*[#   6]
    |psi|^2 = 0.991
==== e(   6) =     7.65299 eV ==== 

    |psi|^2 = 0.001
==== e(   7) =     8.17208 eV ==== 
     psi = 0.211*[#   1]+0.211*[#   5]+0.082*[#   3]+0.082*[#   4]+0.082*[#   7]
          +0.082*[#   8]
    |psi|^2 = 0.748
==== e(   8) =     8.58728 eV ==== 
     psi = 0.060*[#   1]+0.060*[#   5]+0.024*[#   3]+0.024*[#   4]+0.024*[#   7]
          +0.024*[#   8]
    |psi|^2 = 0.216

 k =   0.2777777778  0.5773502692  0.0000000000
==== e(   1) =   -15.51474 eV ==== 
     psi = 0.270*[#   1]+0.270*[#   5]+0.113*[#   3]+0.113*[#   4]+0.113*[#   7]
          +0.113*[#   8]
    |psi|^2 = 0.994
==== e(   2) =   -14.71351 eV ==== 
     psi = 0.214*[#   1]+0.214*[#   5]+0.141*[#   3]+0.141*[#   4]+0.141*[#   7]
          +0.141*[#   8]
    |psi|^2 = 0.992
==== e(   3) =   -12.12378 eV ==== 
     psi = 0.238*[#   3]+0.238*[#   4]+0.238*[#   7]+0.238*[#   8]+0.015*[#   1]
          +0.015*[#   5]
    |psi|^2 = 0.984
==== e(   4) =    -3.48812 eV ==== 
     psi = 0.498*[#   2]+0.498*[#   6]
    |psi|^2 = 0.996
==== e(   5) =    -2.25213 eV ==== 
     psi = 0.495*[#   2]+0.495*[#   6]
    |psi|^2 = 0.991
==== e(   6) =     7.65076 eV ==== 

    |psi|^2 = 0.001
==== e(   7) =     8.17528 eV ==== 
     psi = 0.219*[#   1]+0.219*[#   5]+0.085*[#   3]+0.085*[#   4]+0.085*[#   7]
          +0.085*[#   8]
    |psi|^2 = 0.778
==== e(   8) =     8.85720 eV ==== 
     psi = 0.085*[#   1]+0.085*[#   5]+0.037*[#   3]+0.037*[#   4]+0.037*[#   7]
          +0.037*[#   8]
    |psi|^2 = 0.318

 k =   0.3055555556  0.5292377468  0.0000000000
==== e(   1) =   -15.70550 eV ==== 
     psi = 0.261*[#   1]+0.261*[#   5]+0.117*[#   3]+0.117*[#   4]+0.117*[#   7]
          +0.117*[#   8]
    |psi|^2 = 0.992
==== e(   2) =   -14.45553 eV ==== 
     psi = 0.229*[#   1]+0.229*[#   5]+0.134*[#   3]+0.134*[#   4]+0.134*[#   7]
          +0.134*[#   8]
    |psi|^2 = 0.994
==== e(   3) =   -12.18518 eV ==== 
     psi = 0.241*[#   3]+0.241*[#   4]+0.241*[#   7]+0.241*[#   8]+0.009*[#   1]
          +0.009*[#   5]
    |psi|^2 = 0.983
==== e(   4) =    -3.59718 eV ==== 
     psi = 0.498*[#   2]+0.498*[#   6]
    |psi|^2 = 0.996
==== e(   5) =    -2.12932 eV ==== 
     psi = 0.496*[#   2]+0.496*[#   6]
    |psi|^2 = 0.992
==== e(   6) =     7.61067 eV ==== 

    |psi|^2 = 0.000
==== e(   7) =     8.48319 eV ==== 
     psi = 0.062*[#   1]+0.062*[#   5]+0.025*[#   3]+0.025*[#   4]+0.025*[#   7]
          +0.025*[#   8]
    |psi|^2 = 0.225
==== e(   8) =     8.54447 eV ==== 
     psi = 0.216*[#   1]+0.216*[#   5]+0.084*[#   3]+0.084*[#   4]+0.084*[#   7]
          +0.084*[#   8]
    |psi|^2 = 0.768

 k =   0.3055555556  0.5613127617  0.0000000000
==== e(   1) =   -15.35692 eV ==== 
     psi = 0.260*[#   1]+0.260*[#   5]+0.118*[#   3]+0.118*[#   4]+0.118*[#   7]
          +0.118*[#   8]
    |psi|^2 = 0.993
==== e(   2) =   -14.74786 eV ==== 
     psi = 0.236*[#   1]+0.236*[#   5]+0.131*[#   3]+0.131*[#   4]+0.131*[#   7]
          +0.131*[#   8]
    |psi|^2 = 0.994
==== e(   3) =   -12.31167 eV ==== 
     psi = 0.243*[#   3]+0.243*[#   4]+0.243*[#   7]+0.243*[#   8]+0.005*[#   1]
          +0.005*[#   5]
    |psi|^2 = 0.982
==== e(   4) =    -3.25480 eV ==== 
     psi = 0.498*[#   2]+0.498*[#   6]
    |psi|^2 = 0.995
==== e(   5) =    -2.46987 eV ==== 
     psi = 0.496*[#   2]+0.496*[#   6]
    |psi|^2 = 0.993
==== e(   6) =     7.57912 eV ==== 

    |psi|^2 = 0.000
==== e(   7) =     8.60634 eV ==== 
     psi = 0.192*[#   1]+0.192*[#   5]+0.077*[#   3]+0.077*[#   4]+0.077*[#   7]
          +0.077*[#   8]
    |psi|^2 = 0.692
==== e(   8) =     8.82879 eV ==== 
     psi = 0.117*[#   1]+0.117*[#   5]+0.050*[#   3]+0.050*[#   4]+0.050*[#   7]
          +0.050*[#   8]
    |psi|^2 = 0.432

 k =   0.3333333333  0.5773502692  0.0000000000
==== e(   1) =   -15.02790 eV ==== 
     psi = 0.250*[#   1]+0.250*[#   5]+0.123*[#   3]+0.123*[#   4]+0.123*[#   7]
          +0.123*[#   8]
    |psi|^2 = 0.994
==== e(   2) =   -15.02790 eV ==== 
     psi = 0.250*[#   1]+0.250*[#   5]+0.123*[#   3]+0.123*[#   4]+0.123*[#   7]
          +0.123*[#   8]
    |psi|^2 = 0.994
==== e(   3) =   -12.39450 eV ==== 
     psi = 0.245*[#   3]+0.245*[#   4]+0.245*[#   7]+0.245*[#   8]
    |psi|^2 = 0.981
==== e(   4) =    -2.86003 eV ==== 
     psi = 0.497*[#   2]+0.497*[#   6]
    |psi|^2 = 0.994
==== e(   5) =    -2.86003 eV ==== 
     psi = 0.497*[#   2]+0.497*[#   6]
    |psi|^2 = 0.994
==== e(   6) =     7.55011 eV ==== 

    |psi|^2 = 0.000
==== e(   7) =     8.82154 eV ==== 
     psi = 0.159*[#   1]+0.159*[#   5]+0.067*[#   3]+0.067*[#   4]+0.067*[#   7]
          +0.067*[#   8]
    |psi|^2 = 0.585
==== e(   8) =     8.82154 eV ==== 
     psi = 0.159*[#   1]+0.159*[#   5]+0.067*[#   3]+0.067*[#   4]+0.067*[#   7]
          +0.067*[#   8]
    |psi|^2 = 0.585

Lowdin Charges: 

     Atom #   1: total charge =   3.9594, s =  0.9541, 
     Atom #   1: total charge =   3.9594, p =  3.0053, pz=  0.9883, px=  1.0085, py=  1.0085, 
     Atom #   2: total charge =   3.9594, s =  0.9541, 
     Atom #   2: total charge =   3.9594, p =  3.0053, pz=  0.9883, px=  1.0085, py=  1.0085, 
     Spilling Parameter:   0.0101

     PROJWFC      :      7.69s CPU     17.93s WALL


   This run was terminated on:  22:14:15  28Aug2023            

=------------------------------------------------------------------------------=
   JOB DONE.
=------------------------------------------------------------------------------=
