
     Program PWSCF v.6.7MaX starts on 24Aug2023 at 11:44:36 

     This program is part of the open-source Quantum ESPRESSO suite
     for quantum simulation of materials; please cite
         "P. Giannozzi et al., J. Phys.:Condens. Matter 21 395502 (2009);
         "P. Giannozzi et al., J. Phys.:Condens. Matter 29 465901 (2017);
          URL http://www.quantum-espresso.org", 
     in publications or presentations arising from this work. More details at
     http://www.quantum-espresso.org/quote

     Parallel version (MPI), running on     2 processors

     MPI processes distributed on     1 nodes
     R & G space division:  proc/nbgrp/npool/nimage =       2
     Waiting for input...
     Reading input from standard input

     Current dimensions of program PWSCF are:
     Max number of different atomic species (ntypx) = 10
     Max number of k-points (npk) =  40000
     Max angular momentum in pseudopotentials (lmaxx) =  3

     Atomic positions and unit cell read from directory:
     ./tmp/graphene1.save/
     Atomic positions from file used, from input discarded

     file C.pbe-n-kjpaw_psl.1.0.0.UPF: wavefunction(s)  2S 2P renormalized

     Subspace diagonalization in iterative solution of the eigenvalue problem:
     a serial algorithm will be used


     Parallelization info
     --------------------
     sticks:   dense  smooth     PW     G-vecs:    dense   smooth      PW
     Min         273     273     81                43333    43333    7141
     Max         274     274     82                43350    43350    7144
     Sum         547     547    163                86683    86683   14285



     bravais-lattice index     =           12
     lattice parameter (alat)  =       4.4276  a.u.
     unit-cell volume          =     641.6553 (a.u.)^3
     number of atoms/cell      =            2
     number of atomic types    =            1
     number of electrons       =         8.00
     number of Kohn-Sham states=            8
     kinetic-energy cutoff     =     100.0000  Ry
     charge density cutoff     =     400.0000  Ry
     Exchange-correlation= SLA  PW   PBX  PBC
                           (   1   4   3   4   0   0   0)

     celldm(1)=   4.427628  celldm(2)=   1.000000  celldm(3)=   8.536065
     celldm(4)=  -0.500000  celldm(5)=   0.000000  celldm(6)=   0.000000

     crystal axes: (cart. coord. in units of alat)
               a(1) = (   1.000000   0.000000   0.000000 )  
               a(2) = (  -0.500000   0.866025   0.000000 )  
               a(3) = (   0.000000   0.000000   8.536065 )  

     reciprocal axes: (cart. coord. in units 2 pi/alat)
               b(1) = (  1.000000  0.577350 -0.000000 )  
               b(2) = (  0.000000  1.154701  0.000000 )  
               b(3) = (  0.000000 -0.000000  0.117150 )  


     PseudoPot. # 1 for C  read from file:
     ./Pseudo/C.pbe-n-kjpaw_psl.1.0.0.UPF
     MD5 check sum: ecdf03482cb4269f2fcfa842d572f30f
     Pseudo is Projector augmented-wave + core cor, Zval =  4.0
     Generated using &quot;atomic&quot; code by A. Dal Corso  v.6.3
     Shape of augmentation charge: PSQ
     Using radial grid of 1073 points,  4 beta functions with: 
                l(1) =   0
                l(2) =   0
                l(3) =   1
                l(4) =   1
     Q(r) pseudized with 0 coefficients 


     atomic species   valence    mass     pseudopotential
        C              4.00    12.01070     C ( 1.00)

     24 Sym. Ops., with inversion, found (18 have fractional translation)


                                    s                        frac. trans.

      isym =  1     identity                                     

 cryst.   s( 1) = (     1          0          0      )
                  (     0          1          0      )
                  (     0          0          1      )

 cart.    s( 1) = (  1.0000000  0.0000000  0.0000000 )
                  (  0.0000000  1.0000000  0.0000000 )
                  (  0.0000000  0.0000000  1.0000000 )


      isym =  2     180 deg rotation - cart. axis [0,0,1]        

 cryst.   s( 2) = (    -1          0          0      )    f =( -0.3333333 )
                  (     0         -1          0      )       (  0.3333333 )
                  (     0          0          1      )       (  0.0000000 )

 cart.    s( 2) = ( -1.0000000  0.0000000  0.0000000 )    f =( -0.5000000 )
                  (  0.0000000 -1.0000000  0.0000000 )       (  0.2886751 )
                  (  0.0000000  0.0000000  1.0000000 )       (  0.0000000 )


      isym =  3     180 deg rotation - cart. axis [0,1,0]        

 cryst.   s( 3) = (    -1          0          0      )    f =(  0.0000000 )
                  (     1          1          0      )       (  0.0000000 )
                  (     0          0         -1      )       ( -0.5000000 )

 cart.    s( 3) = ( -1.0000000 -0.0000000  0.0000000 )    f =(  0.0000000 )
                  (  0.0000000  1.0000000  0.0000000 )       (  0.0000000 )
                  (  0.0000000  0.0000000 -1.0000000 )       ( -4.2680324 )


      isym =  4     180 deg rotation - cart. axis [1,0,0]        

 cryst.   s( 4) = (     1          0          0      )    f =( -0.3333333 )
                  (    -1         -1          0      )       (  0.3333333 )
                  (     0          0         -1      )       ( -0.5000000 )

 cart.    s( 4) = (  1.0000000  0.0000000  0.0000000 )    f =( -0.5000000 )
                  (  0.0000000 -1.0000000  0.0000000 )       (  0.2886751 )
                  (  0.0000000  0.0000000 -1.0000000 )       ( -4.2680324 )


      isym =  5      60 deg rotation - cryst. axis [0,0,1]       

 cryst.   s( 5) = (     1          1          0      )    f =( -0.3333333 )
                  (    -1          0          0      )       (  0.3333333 )
                  (     0          0          1      )       (  0.0000000 )

 cart.    s( 5) = (  0.5000000 -0.8660254  0.0000000 )    f =( -0.5000000 )
                  (  0.8660254  0.5000000  0.0000000 )       (  0.2886751 )
                  (  0.0000000  0.0000000  1.0000000 )       (  0.0000000 )


      isym =  6      60 deg rotation - cryst. axis [0,0,-1]      

 cryst.   s( 6) = (     0         -1          0      )    f =( -0.3333333 )
                  (     1          1          0      )       (  0.3333333 )
                  (     0          0          1      )       (  0.0000000 )

 cart.    s( 6) = (  0.5000000  0.8660254  0.0000000 )    f =( -0.5000000 )
                  ( -0.8660254  0.5000000  0.0000000 )       (  0.2886751 )
                  (  0.0000000  0.0000000  1.0000000 )       (  0.0000000 )


      isym =  7     120 deg rotation - cryst. axis [0,0,1]       

 cryst.   s( 7) = (     0          1          0      )
                  (    -1         -1          0      )
                  (     0          0          1      )

 cart.    s( 7) = ( -0.5000000 -0.8660254  0.0000000 )
                  (  0.8660254 -0.5000000  0.0000000 )
                  (  0.0000000  0.0000000  1.0000000 )


      isym =  8     120 deg rotation - cryst. axis [0,0,-1]      

 cryst.   s( 8) = (    -1         -1          0      )
                  (     1          0          0      )
                  (     0          0          1      )

 cart.    s( 8) = ( -0.5000000  0.8660254  0.0000000 )
                  ( -0.8660254 -0.5000000  0.0000000 )
                  (  0.0000000  0.0000000  1.0000000 )


      isym =  9     180 deg rotation - cryst. axis [1,-1,0]      

 cryst.   s( 9) = (     0         -1          0      )    f =(  0.0000000 )
                  (    -1          0          0      )       (  0.0000000 )
                  (     0          0         -1      )       ( -0.5000000 )

 cart.    s( 9) = (  0.5000000 -0.8660254  0.0000000 )    f =(  0.0000000 )
                  ( -0.8660254 -0.5000000  0.0000000 )       (  0.0000000 )
                  (  0.0000000  0.0000000 -1.0000000 )       ( -4.2680324 )


      isym = 10     180 deg rotation - cryst. axis [2,1,0]       

 cryst.   s(10) = (     1          1          0      )    f =(  0.0000000 )
                  (     0         -1          0      )       (  0.0000000 )
                  (     0          0         -1      )       ( -0.5000000 )

 cart.    s(10) = (  0.5000000  0.8660254  0.0000000 )    f =(  0.0000000 )
                  (  0.8660254 -0.5000000  0.0000000 )       (  0.0000000 )
                  (  0.0000000  0.0000000 -1.0000000 )       ( -4.2680324 )


      isym = 11     180 deg rotation - cryst. axis [0,1,0]       

 cryst.   s(11) = (    -1         -1          0      )    f =( -0.3333333 )
                  (     0          1          0      )       (  0.3333333 )
                  (     0          0         -1      )       ( -0.5000000 )

 cart.    s(11) = ( -0.5000000 -0.8660254  0.0000000 )    f =( -0.5000000 )
                  ( -0.8660254  0.5000000  0.0000000 )       (  0.2886751 )
                  (  0.0000000  0.0000000 -1.0000000 )       ( -4.2680324 )


      isym = 12     180 deg rotation - cryst. axis [1,1,0]       

 cryst.   s(12) = (     0          1          0      )    f =( -0.3333333 )
                  (     1          0          0      )       (  0.3333333 )
                  (     0          0         -1      )       ( -0.5000000 )

 cart.    s(12) = ( -0.5000000  0.8660254  0.0000000 )    f =( -0.5000000 )
                  (  0.8660254  0.5000000  0.0000000 )       (  0.2886751 )
                  (  0.0000000  0.0000000 -1.0000000 )       ( -4.2680324 )


      isym = 13     inversion                                    

 cryst.   s(13) = (    -1          0          0      )    f =( -0.3333333 )
                  (     0         -1          0      )       (  0.3333333 )
                  (     0          0         -1      )       ( -0.5000000 )

 cart.    s(13) = ( -1.0000000  0.0000000  0.0000000 )    f =( -0.5000000 )
                  (  0.0000000 -1.0000000  0.0000000 )       (  0.2886751 )
                  (  0.0000000  0.0000000 -1.0000000 )       ( -4.2680324 )


      isym = 14     inv. 180 deg rotation - cart. axis [0,0,1]   

 cryst.   s(14) = (     1          0          0      )    f =(  0.0000000 )
                  (     0          1          0      )       (  0.0000000 )
                  (     0          0         -1      )       ( -0.5000000 )

 cart.    s(14) = (  1.0000000  0.0000000  0.0000000 )    f =(  0.0000000 )
                  (  0.0000000  1.0000000  0.0000000 )       (  0.0000000 )
                  (  0.0000000  0.0000000 -1.0000000 )       ( -4.2680324 )


      isym = 15     inv. 180 deg rotation - cart. axis [0,1,0]   

 cryst.   s(15) = (     1          0          0      )    f =( -0.3333333 )
                  (    -1         -1          0      )       (  0.3333333 )
                  (     0          0          1      )       (  0.0000000 )

 cart.    s(15) = (  1.0000000  0.0000000  0.0000000 )    f =( -0.5000000 )
                  (  0.0000000 -1.0000000  0.0000000 )       (  0.2886751 )
                  (  0.0000000  0.0000000  1.0000000 )       (  0.0000000 )


      isym = 16     inv. 180 deg rotation - cart. axis [1,0,0]   

 cryst.   s(16) = (    -1          0          0      )
                  (     1          1          0      )
                  (     0          0          1      )

 cart.    s(16) = ( -1.0000000 -0.0000000  0.0000000 )
                  (  0.0000000  1.0000000  0.0000000 )
                  (  0.0000000  0.0000000  1.0000000 )


      isym = 17     inv.  60 deg rotation - cryst. axis [0,0,1]  

 cryst.   s(17) = (    -1         -1          0      )    f =(  0.0000000 )
                  (     1          0          0      )       (  0.0000000 )
                  (     0          0         -1      )       ( -0.5000000 )

 cart.    s(17) = ( -0.5000000  0.8660254  0.0000000 )    f =(  0.0000000 )
                  ( -0.8660254 -0.5000000  0.0000000 )       (  0.0000000 )
                  (  0.0000000  0.0000000 -1.0000000 )       ( -4.2680324 )


      isym = 18     inv.  60 deg rotation - cryst. axis [0,0,-1] 

 cryst.   s(18) = (     0          1          0      )    f =(  0.0000000 )
                  (    -1         -1          0      )       (  0.0000000 )
                  (     0          0         -1      )       ( -0.5000000 )

 cart.    s(18) = ( -0.5000000 -0.8660254  0.0000000 )    f =(  0.0000000 )
                  (  0.8660254 -0.5000000  0.0000000 )       (  0.0000000 )
                  (  0.0000000  0.0000000 -1.0000000 )       ( -4.2680324 )


      isym = 19     inv. 120 deg rotation - cryst. axis [0,0,1]  

 cryst.   s(19) = (     0         -1          0      )    f =( -0.3333333 )
                  (     1          1          0      )       (  0.3333333 )
                  (     0          0         -1      )       ( -0.5000000 )

 cart.    s(19) = (  0.5000000  0.8660254  0.0000000 )    f =( -0.5000000 )
                  ( -0.8660254  0.5000000  0.0000000 )       (  0.2886751 )
                  (  0.0000000  0.0000000 -1.0000000 )       ( -4.2680324 )


      isym = 20     inv. 120 deg rotation - cryst. axis [0,0,-1] 

 cryst.   s(20) = (     1          1          0      )    f =( -0.3333333 )
                  (    -1          0          0      )       (  0.3333333 )
                  (     0          0         -1      )       ( -0.5000000 )

 cart.    s(20) = (  0.5000000 -0.8660254  0.0000000 )    f =( -0.5000000 )
                  (  0.8660254  0.5000000  0.0000000 )       (  0.2886751 )
                  (  0.0000000  0.0000000 -1.0000000 )       ( -4.2680324 )


      isym = 21     inv. 180 deg rotation - cryst. axis [1,-1,0] 

 cryst.   s(21) = (     0          1          0      )    f =( -0.3333333 )
                  (     1          0          0      )       (  0.3333333 )
                  (     0          0          1      )       (  0.0000000 )

 cart.    s(21) = ( -0.5000000  0.8660254  0.0000000 )    f =( -0.5000000 )
                  (  0.8660254  0.5000000  0.0000000 )       (  0.2886751 )
                  (  0.0000000  0.0000000  1.0000000 )       (  0.0000000 )


      isym = 22     inv. 180 deg rotation - cryst. axis [2,1,0]  

 cryst.   s(22) = (    -1         -1          0      )    f =( -0.3333333 )
                  (     0          1          0      )       (  0.3333333 )
                  (     0          0          1      )       (  0.0000000 )

 cart.    s(22) = ( -0.5000000 -0.8660254  0.0000000 )    f =( -0.5000000 )
                  ( -0.8660254  0.5000000  0.0000000 )       (  0.2886751 )
                  (  0.0000000  0.0000000  1.0000000 )       (  0.0000000 )


      isym = 23     inv. 180 deg rotation - cryst. axis [0,1,0]  

 cryst.   s(23) = (     1          1          0      )
                  (     0         -1          0      )
                  (     0          0          1      )

 cart.    s(23) = (  0.5000000  0.8660254  0.0000000 )
                  (  0.8660254 -0.5000000  0.0000000 )
                  (  0.0000000  0.0000000  1.0000000 )


      isym = 24     inv. 180 deg rotation - cryst. axis [1,1,0]  

 cryst.   s(24) = (     0         -1          0      )
                  (    -1          0          0      )
                  (     0          0          1      )

 cart.    s(24) = (  0.5000000 -0.8660254  0.0000000 )
                  ( -0.8660254 -0.5000000  0.0000000 )
                  (  0.0000000  0.0000000  1.0000000 )


     point group D_6h(6/mmm)
     there are 12 classes
     the character table:

       E     2C6   2C3   C2    3C2'  3C2'' i     2S3   2S6   s_h   3s_d  3s_v 
A_1g   1.00  1.00  1.00  1.00  1.00  1.00  1.00  1.00  1.00  1.00  1.00  1.00
A_2g   1.00  1.00  1.00  1.00 -1.00 -1.00  1.00  1.00  1.00  1.00 -1.00 -1.00
B_1g   1.00 -1.00  1.00 -1.00  1.00 -1.00  1.00 -1.00  1.00 -1.00  1.00 -1.00
B_2g   1.00 -1.00  1.00 -1.00 -1.00  1.00  1.00 -1.00  1.00 -1.00 -1.00  1.00
E_1g   2.00  1.00 -1.00 -2.00  0.00  0.00  2.00  1.00 -1.00 -2.00  0.00  0.00
E_2g   2.00 -1.00 -1.00  2.00  0.00  0.00  2.00 -1.00 -1.00  2.00  0.00  0.00
A_1u   1.00  1.00  1.00  1.00  1.00  1.00 -1.00 -1.00 -1.00 -1.00 -1.00 -1.00
A_2u   1.00  1.00  1.00  1.00 -1.00 -1.00 -1.00 -1.00 -1.00 -1.00  1.00  1.00
B_1u   1.00 -1.00  1.00 -1.00  1.00 -1.00 -1.00  1.00 -1.00  1.00 -1.00  1.00
B_2u   1.00 -1.00  1.00 -1.00 -1.00  1.00 -1.00  1.00 -1.00  1.00  1.00 -1.00
E_1u   2.00  1.00 -1.00 -2.00  0.00  0.00 -2.00 -1.00  1.00  2.00  0.00  0.00
E_2u   2.00 -1.00 -1.00  2.00  0.00  0.00 -2.00  1.00  1.00 -2.00  0.00  0.00

     the symmetry operations in each class and the name of the first element:

     E        1
          identity                                               
     2C6      5    6
           60 deg rotation - cryst. axis [0,0,1]                 
     2C3      7    8
          120 deg rotation - cryst. axis [0,0,1]                 
     C2       2
          180 deg rotation - cart. axis [0,0,1]                  
     3C2'     4   12   11
          180 deg rotation - cart. axis [1,0,0]                  
     3C2''    3    9   10
          180 deg rotation - cart. axis [0,1,0]                  
     i       13
          inversion                                              
     2S3     17   18
          inv.  60 deg rotation - cryst. axis [0,0,1]            
     2S6     19   20
          inv. 120 deg rotation - cryst. axis [0,0,1]            
     s_h     14
          inv. 180 deg rotation - cart. axis [0,0,1]             
     3s_d    16   24   23
          inv. 180 deg rotation - cart. axis [1,0,0]             
     3s_v    15   21   22
          inv. 180 deg rotation - cart. axis [0,1,0]             

   Cartesian axes

     site n.     atom                  positions (alat units)
         1           C   tau(   1) = (   0.0000000   0.0000000   2.1340162  )
         2           C   tau(   2) = (  -0.0000000   0.5773503   2.1340162  )

   Crystallographic axes

     site n.     atom                  positions (cryst. coord.)
         1           C   tau(   1) = (  0.0000000  0.0000000  0.2500000  )
         2           C   tau(   2) = (  0.3333333  0.6666667  0.2500000  )

     number of k points=   127 (tetrahedron method)
                       cart. coord. in units 2pi/alat
        k(    1) = (   0.0000000   0.0000000   0.0000000), wk =   0.0015432
        k(    2) = (   0.0000000   0.0320750   0.0000000), wk =   0.0092593
        k(    3) = (   0.0000000   0.0641500   0.0000000), wk =   0.0092593
        k(    4) = (   0.0000000   0.0962250   0.0000000), wk =   0.0092593
        k(    5) = (   0.0000000   0.1283001   0.0000000), wk =   0.0092593
        k(    6) = (   0.0000000   0.1603751   0.0000000), wk =   0.0092593
        k(    7) = (   0.0000000   0.1924501   0.0000000), wk =   0.0092593
        k(    8) = (   0.0000000   0.2245251   0.0000000), wk =   0.0092593
        k(    9) = (   0.0000000   0.2566001   0.0000000), wk =   0.0092593
        k(   10) = (   0.0000000   0.2886751   0.0000000), wk =   0.0092593
        k(   11) = (   0.0000000   0.3207501   0.0000000), wk =   0.0092593
        k(   12) = (   0.0000000   0.3528252   0.0000000), wk =   0.0092593
        k(   13) = (   0.0000000   0.3849002   0.0000000), wk =   0.0092593
        k(   14) = (   0.0000000   0.4169752   0.0000000), wk =   0.0092593
        k(   15) = (   0.0000000   0.4490502   0.0000000), wk =   0.0092593
        k(   16) = (   0.0000000   0.4811252   0.0000000), wk =   0.0092593
        k(   17) = (   0.0000000   0.5132002   0.0000000), wk =   0.0092593
        k(   18) = (   0.0000000   0.5452753   0.0000000), wk =   0.0092593
        k(   19) = (   0.0000000  -0.5773503   0.0000000), wk =   0.0046296
        k(   20) = (   0.0277778   0.0481125   0.0000000), wk =   0.0092593
        k(   21) = (   0.0277778   0.0801875   0.0000000), wk =   0.0185185
        k(   22) = (   0.0277778   0.1122626   0.0000000), wk =   0.0185185
        k(   23) = (   0.0277778   0.1443376   0.0000000), wk =   0.0185185
        k(   24) = (   0.0277778   0.1764126   0.0000000), wk =   0.0185185
        k(   25) = (   0.0277778   0.2084876   0.0000000), wk =   0.0185185
        k(   26) = (   0.0277778   0.2405626   0.0000000), wk =   0.0185185
        k(   27) = (   0.0277778   0.2726376   0.0000000), wk =   0.0185185
        k(   28) = (   0.0277778   0.3047126   0.0000000), wk =   0.0185185
        k(   29) = (   0.0277778   0.3367877   0.0000000), wk =   0.0185185
        k(   30) = (   0.0277778   0.3688627   0.0000000), wk =   0.0185185
        k(   31) = (   0.0277778   0.4009377   0.0000000), wk =   0.0185185
        k(   32) = (   0.0277778   0.4330127   0.0000000), wk =   0.0185185
        k(   33) = (   0.0277778   0.4650877   0.0000000), wk =   0.0185185
        k(   34) = (   0.0277778   0.4971627   0.0000000), wk =   0.0185185
        k(   35) = (   0.0277778   0.5292377   0.0000000), wk =   0.0185185
        k(   36) = (   0.0277778   0.5613128   0.0000000), wk =   0.0185185
        k(   37) = (   0.0555556   0.0962250   0.0000000), wk =   0.0092593
        k(   38) = (   0.0555556   0.1283001   0.0000000), wk =   0.0185185
        k(   39) = (   0.0555556   0.1603751   0.0000000), wk =   0.0185185
        k(   40) = (   0.0555556   0.1924501   0.0000000), wk =   0.0185185
        k(   41) = (   0.0555556   0.2245251   0.0000000), wk =   0.0185185
        k(   42) = (   0.0555556   0.2566001   0.0000000), wk =   0.0185185
        k(   43) = (   0.0555556   0.2886751   0.0000000), wk =   0.0185185
        k(   44) = (   0.0555556   0.3207501   0.0000000), wk =   0.0185185
        k(   45) = (   0.0555556   0.3528252   0.0000000), wk =   0.0185185
        k(   46) = (   0.0555556   0.3849002   0.0000000), wk =   0.0185185
        k(   47) = (   0.0555556   0.4169752   0.0000000), wk =   0.0185185
        k(   48) = (   0.0555556   0.4490502   0.0000000), wk =   0.0185185
        k(   49) = (   0.0555556   0.4811252   0.0000000), wk =   0.0185185
        k(   50) = (   0.0555556   0.5132002   0.0000000), wk =   0.0185185
        k(   51) = (   0.0555556   0.5452753   0.0000000), wk =   0.0185185
        k(   52) = (   0.0555556   0.5773503   0.0000000), wk =   0.0092593
        k(   53) = (   0.0833333   0.1443376   0.0000000), wk =   0.0092593
        k(   54) = (   0.0833333   0.1764126   0.0000000), wk =   0.0185185
        k(   55) = (   0.0833333   0.2084876   0.0000000), wk =   0.0185185
        k(   56) = (   0.0833333   0.2405626   0.0000000), wk =   0.0185185
        k(   57) = (   0.0833333   0.2726376   0.0000000), wk =   0.0185185
        k(   58) = (   0.0833333   0.3047126   0.0000000), wk =   0.0185185
        k(   59) = (   0.0833333   0.3367877   0.0000000), wk =   0.0185185
        k(   60) = (   0.0833333   0.3688627   0.0000000), wk =   0.0185185
        k(   61) = (   0.0833333   0.4009377   0.0000000), wk =   0.0185185
        k(   62) = (   0.0833333   0.4330127   0.0000000), wk =   0.0185185
        k(   63) = (   0.0833333   0.4650877   0.0000000), wk =   0.0185185
        k(   64) = (   0.0833333   0.4971627   0.0000000), wk =   0.0185185
        k(   65) = (   0.0833333   0.5292377   0.0000000), wk =   0.0185185
        k(   66) = (   0.0833333   0.5613128   0.0000000), wk =   0.0185185
        k(   67) = (   0.1111111   0.1924501   0.0000000), wk =   0.0092593
        k(   68) = (   0.1111111   0.2245251   0.0000000), wk =   0.0185185
        k(   69) = (   0.1111111   0.2566001   0.0000000), wk =   0.0185185
        k(   70) = (   0.1111111   0.2886751   0.0000000), wk =   0.0185185
        k(   71) = (   0.1111111   0.3207501   0.0000000), wk =   0.0185185
        k(   72) = (   0.1111111   0.3528252   0.0000000), wk =   0.0185185
        k(   73) = (   0.1111111   0.3849002   0.0000000), wk =   0.0185185
        k(   74) = (   0.1111111   0.4169752   0.0000000), wk =   0.0185185
        k(   75) = (   0.1111111   0.4490502   0.0000000), wk =   0.0185185
        k(   76) = (   0.1111111   0.4811252   0.0000000), wk =   0.0185185
        k(   77) = (   0.1111111   0.5132002   0.0000000), wk =   0.0185185
        k(   78) = (   0.1111111   0.5452753   0.0000000), wk =   0.0185185
        k(   79) = (   0.1111111   0.5773503   0.0000000), wk =   0.0092593
        k(   80) = (   0.1388889   0.2405626   0.0000000), wk =   0.0092593
        k(   81) = (   0.1388889   0.2726376   0.0000000), wk =   0.0185185
        k(   82) = (   0.1388889   0.3047126   0.0000000), wk =   0.0185185
        k(   83) = (   0.1388889   0.3367877   0.0000000), wk =   0.0185185
        k(   84) = (   0.1388889   0.3688627   0.0000000), wk =   0.0185185
        k(   85) = (   0.1388889   0.4009377   0.0000000), wk =   0.0185185
        k(   86) = (   0.1388889   0.4330127   0.0000000), wk =   0.0185185
        k(   87) = (   0.1388889   0.4650877   0.0000000), wk =   0.0185185
        k(   88) = (   0.1388889   0.4971627   0.0000000), wk =   0.0185185
        k(   89) = (   0.1388889   0.5292377   0.0000000), wk =   0.0185185
        k(   90) = (   0.1388889   0.5613128   0.0000000), wk =   0.0185185
        k(   91) = (   0.1666667   0.2886751   0.0000000), wk =   0.0092593
        k(   92) = (   0.1666667   0.3207501   0.0000000), wk =   0.0185185
        k(   93) = (   0.1666667   0.3528252   0.0000000), wk =   0.0185185
        k(   94) = (   0.1666667   0.3849002   0.0000000), wk =   0.0185185
        k(   95) = (   0.1666667   0.4169752   0.0000000), wk =   0.0185185
        k(   96) = (   0.1666667   0.4490502   0.0000000), wk =   0.0185185
        k(   97) = (   0.1666667   0.4811252   0.0000000), wk =   0.0185185
        k(   98) = (   0.1666667   0.5132002   0.0000000), wk =   0.0185185
        k(   99) = (   0.1666667   0.5452753   0.0000000), wk =   0.0185185
        k(  100) = (   0.1666667   0.5773503   0.0000000), wk =   0.0092593
        k(  101) = (   0.1944444   0.3367877   0.0000000), wk =   0.0092593
        k(  102) = (   0.1944444   0.3688627   0.0000000), wk =   0.0185185
        k(  103) = (   0.1944444   0.4009377   0.0000000), wk =   0.0185185
        k(  104) = (   0.1944444   0.4330127   0.0000000), wk =   0.0185185
        k(  105) = (   0.1944444   0.4650877   0.0000000), wk =   0.0185185
        k(  106) = (   0.1944444   0.4971627   0.0000000), wk =   0.0185185
        k(  107) = (   0.1944444   0.5292377   0.0000000), wk =   0.0185185
        k(  108) = (   0.1944444   0.5613128   0.0000000), wk =   0.0185185
        k(  109) = (   0.2222222   0.3849002   0.0000000), wk =   0.0092593
        k(  110) = (   0.2222222   0.4169752   0.0000000), wk =   0.0185185
        k(  111) = (   0.2222222   0.4490502   0.0000000), wk =   0.0185185
        k(  112) = (   0.2222222   0.4811252   0.0000000), wk =   0.0185185
        k(  113) = (   0.2222222   0.5132002   0.0000000), wk =   0.0185185
        k(  114) = (   0.2222222   0.5452753   0.0000000), wk =   0.0185185
        k(  115) = (   0.2222222   0.5773503   0.0000000), wk =   0.0092593
        k(  116) = (   0.2500000   0.4330127   0.0000000), wk =   0.0092593
        k(  117) = (   0.2500000   0.4650877   0.0000000), wk =   0.0185185
        k(  118) = (   0.2500000   0.4971627   0.0000000), wk =   0.0185185
        k(  119) = (   0.2500000   0.5292377   0.0000000), wk =   0.0185185
        k(  120) = (   0.2500000   0.5613128   0.0000000), wk =   0.0185185
        k(  121) = (   0.2777778   0.4811252   0.0000000), wk =   0.0092593
        k(  122) = (   0.2777778   0.5132002   0.0000000), wk =   0.0185185
        k(  123) = (   0.2777778   0.5452753   0.0000000), wk =   0.0185185
        k(  124) = (   0.2777778   0.5773503   0.0000000), wk =   0.0092593
        k(  125) = (   0.3055556   0.5292377   0.0000000), wk =   0.0092593
        k(  126) = (   0.3055556   0.5613128   0.0000000), wk =   0.0185185
        k(  127) = (   0.3333333   0.5773503   0.0000000), wk =   0.0030864

                       cryst. coord.
        k(    1) = (   0.0000000   0.0000000   0.0000000), wk =   0.0015432
        k(    2) = (   0.0000000   0.0277778   0.0000000), wk =   0.0092593
        k(    3) = (   0.0000000   0.0555556   0.0000000), wk =   0.0092593
        k(    4) = (   0.0000000   0.0833333   0.0000000), wk =   0.0092593
        k(    5) = (   0.0000000   0.1111111   0.0000000), wk =   0.0092593
        k(    6) = (   0.0000000   0.1388889   0.0000000), wk =   0.0092593
        k(    7) = (   0.0000000   0.1666667   0.0000000), wk =   0.0092593
        k(    8) = (   0.0000000   0.1944444   0.0000000), wk =   0.0092593
        k(    9) = (   0.0000000   0.2222222   0.0000000), wk =   0.0092593
        k(   10) = (   0.0000000   0.2500000   0.0000000), wk =   0.0092593
        k(   11) = (   0.0000000   0.2777778   0.0000000), wk =   0.0092593
        k(   12) = (   0.0000000   0.3055556   0.0000000), wk =   0.0092593
        k(   13) = (   0.0000000   0.3333333   0.0000000), wk =   0.0092593
        k(   14) = (   0.0000000   0.3611111   0.0000000), wk =   0.0092593
        k(   15) = (   0.0000000   0.3888889   0.0000000), wk =   0.0092593
        k(   16) = (   0.0000000   0.4166667   0.0000000), wk =   0.0092593
        k(   17) = (   0.0000000   0.4444444   0.0000000), wk =   0.0092593
        k(   18) = (   0.0000000   0.4722222   0.0000000), wk =   0.0092593
        k(   19) = (   0.0000000  -0.5000000   0.0000000), wk =   0.0046296
        k(   20) = (   0.0277778   0.0277778   0.0000000), wk =   0.0092593
        k(   21) = (   0.0277778   0.0555556   0.0000000), wk =   0.0185185
        k(   22) = (   0.0277778   0.0833333   0.0000000), wk =   0.0185185
        k(   23) = (   0.0277778   0.1111111   0.0000000), wk =   0.0185185
        k(   24) = (   0.0277778   0.1388889   0.0000000), wk =   0.0185185
        k(   25) = (   0.0277778   0.1666667   0.0000000), wk =   0.0185185
        k(   26) = (   0.0277778   0.1944444   0.0000000), wk =   0.0185185
        k(   27) = (   0.0277778   0.2222222   0.0000000), wk =   0.0185185
        k(   28) = (   0.0277778   0.2500000   0.0000000), wk =   0.0185185
        k(   29) = (   0.0277778   0.2777778   0.0000000), wk =   0.0185185
        k(   30) = (   0.0277778   0.3055556   0.0000000), wk =   0.0185185
        k(   31) = (   0.0277778   0.3333333   0.0000000), wk =   0.0185185
        k(   32) = (   0.0277778   0.3611111   0.0000000), wk =   0.0185185
        k(   33) = (   0.0277778   0.3888889   0.0000000), wk =   0.0185185
        k(   34) = (   0.0277778   0.4166667   0.0000000), wk =   0.0185185
        k(   35) = (   0.0277778   0.4444444   0.0000000), wk =   0.0185185
        k(   36) = (   0.0277778   0.4722222   0.0000000), wk =   0.0185185
        k(   37) = (   0.0555556   0.0555556   0.0000000), wk =   0.0092593
        k(   38) = (   0.0555556   0.0833333   0.0000000), wk =   0.0185185
        k(   39) = (   0.0555556   0.1111111   0.0000000), wk =   0.0185185
        k(   40) = (   0.0555556   0.1388889   0.0000000), wk =   0.0185185
        k(   41) = (   0.0555556   0.1666667   0.0000000), wk =   0.0185185
        k(   42) = (   0.0555556   0.1944444   0.0000000), wk =   0.0185185
        k(   43) = (   0.0555556   0.2222222   0.0000000), wk =   0.0185185
        k(   44) = (   0.0555556   0.2500000   0.0000000), wk =   0.0185185
        k(   45) = (   0.0555556   0.2777778   0.0000000), wk =   0.0185185
        k(   46) = (   0.0555556   0.3055556   0.0000000), wk =   0.0185185
        k(   47) = (   0.0555556   0.3333333   0.0000000), wk =   0.0185185
        k(   48) = (   0.0555556   0.3611111   0.0000000), wk =   0.0185185
        k(   49) = (   0.0555556   0.3888889   0.0000000), wk =   0.0185185
        k(   50) = (   0.0555556   0.4166667   0.0000000), wk =   0.0185185
        k(   51) = (   0.0555556   0.4444444   0.0000000), wk =   0.0185185
        k(   52) = (   0.0555556   0.4722222   0.0000000), wk =   0.0092593
        k(   53) = (   0.0833333   0.0833333   0.0000000), wk =   0.0092593
        k(   54) = (   0.0833333   0.1111111   0.0000000), wk =   0.0185185
        k(   55) = (   0.0833333   0.1388889   0.0000000), wk =   0.0185185
        k(   56) = (   0.0833333   0.1666667   0.0000000), wk =   0.0185185
        k(   57) = (   0.0833333   0.1944444   0.0000000), wk =   0.0185185
        k(   58) = (   0.0833333   0.2222222   0.0000000), wk =   0.0185185
        k(   59) = (   0.0833333   0.2500000   0.0000000), wk =   0.0185185
        k(   60) = (   0.0833333   0.2777778   0.0000000), wk =   0.0185185
        k(   61) = (   0.0833333   0.3055556   0.0000000), wk =   0.0185185
        k(   62) = (   0.0833333   0.3333333   0.0000000), wk =   0.0185185
        k(   63) = (   0.0833333   0.3611111   0.0000000), wk =   0.0185185
        k(   64) = (   0.0833333   0.3888889   0.0000000), wk =   0.0185185
        k(   65) = (   0.0833333   0.4166667   0.0000000), wk =   0.0185185
        k(   66) = (   0.0833333   0.4444444   0.0000000), wk =   0.0185185
        k(   67) = (   0.1111111   0.1111111   0.0000000), wk =   0.0092593
        k(   68) = (   0.1111111   0.1388889   0.0000000), wk =   0.0185185
        k(   69) = (   0.1111111   0.1666667   0.0000000), wk =   0.0185185
        k(   70) = (   0.1111111   0.1944444   0.0000000), wk =   0.0185185
        k(   71) = (   0.1111111   0.2222222   0.0000000), wk =   0.0185185
        k(   72) = (   0.1111111   0.2500000   0.0000000), wk =   0.0185185
        k(   73) = (   0.1111111   0.2777778   0.0000000), wk =   0.0185185
        k(   74) = (   0.1111111   0.3055556   0.0000000), wk =   0.0185185
        k(   75) = (   0.1111111   0.3333333   0.0000000), wk =   0.0185185
        k(   76) = (   0.1111111   0.3611111   0.0000000), wk =   0.0185185
        k(   77) = (   0.1111111   0.3888889   0.0000000), wk =   0.0185185
        k(   78) = (   0.1111111   0.4166667   0.0000000), wk =   0.0185185
        k(   79) = (   0.1111111   0.4444444   0.0000000), wk =   0.0092593
        k(   80) = (   0.1388889   0.1388889   0.0000000), wk =   0.0092593
        k(   81) = (   0.1388889   0.1666667   0.0000000), wk =   0.0185185
        k(   82) = (   0.1388889   0.1944444   0.0000000), wk =   0.0185185
        k(   83) = (   0.1388889   0.2222222   0.0000000), wk =   0.0185185
        k(   84) = (   0.1388889   0.2500000   0.0000000), wk =   0.0185185
        k(   85) = (   0.1388889   0.2777778   0.0000000), wk =   0.0185185
        k(   86) = (   0.1388889   0.3055556   0.0000000), wk =   0.0185185
        k(   87) = (   0.1388889   0.3333333   0.0000000), wk =   0.0185185
        k(   88) = (   0.1388889   0.3611111   0.0000000), wk =   0.0185185
        k(   89) = (   0.1388889   0.3888889   0.0000000), wk =   0.0185185
        k(   90) = (   0.1388889   0.4166667   0.0000000), wk =   0.0185185
        k(   91) = (   0.1666667   0.1666667   0.0000000), wk =   0.0092593
        k(   92) = (   0.1666667   0.1944444   0.0000000), wk =   0.0185185
        k(   93) = (   0.1666667   0.2222222   0.0000000), wk =   0.0185185
        k(   94) = (   0.1666667   0.2500000   0.0000000), wk =   0.0185185
        k(   95) = (   0.1666667   0.2777778   0.0000000), wk =   0.0185185
        k(   96) = (   0.1666667   0.3055556   0.0000000), wk =   0.0185185
        k(   97) = (   0.1666667   0.3333333   0.0000000), wk =   0.0185185
        k(   98) = (   0.1666667   0.3611111   0.0000000), wk =   0.0185185
        k(   99) = (   0.1666667   0.3888889   0.0000000), wk =   0.0185185
        k(  100) = (   0.1666667   0.4166667   0.0000000), wk =   0.0092593
        k(  101) = (   0.1944444   0.1944444   0.0000000), wk =   0.0092593
        k(  102) = (   0.1944444   0.2222222   0.0000000), wk =   0.0185185
        k(  103) = (   0.1944444   0.2500000   0.0000000), wk =   0.0185185
        k(  104) = (   0.1944444   0.2777778   0.0000000), wk =   0.0185185
        k(  105) = (   0.1944444   0.3055556   0.0000000), wk =   0.0185185
        k(  106) = (   0.1944444   0.3333333   0.0000000), wk =   0.0185185
        k(  107) = (   0.1944444   0.3611111   0.0000000), wk =   0.0185185
        k(  108) = (   0.1944444   0.3888889   0.0000000), wk =   0.0185185
        k(  109) = (   0.2222222   0.2222222   0.0000000), wk =   0.0092593
        k(  110) = (   0.2222222   0.2500000   0.0000000), wk =   0.0185185
        k(  111) = (   0.2222222   0.2777778   0.0000000), wk =   0.0185185
        k(  112) = (   0.2222222   0.3055556   0.0000000), wk =   0.0185185
        k(  113) = (   0.2222222   0.3333333   0.0000000), wk =   0.0185185
        k(  114) = (   0.2222222   0.3611111   0.0000000), wk =   0.0185185
        k(  115) = (   0.2222222   0.3888889   0.0000000), wk =   0.0092593
        k(  116) = (   0.2500000   0.2500000   0.0000000), wk =   0.0092593
        k(  117) = (   0.2500000   0.2777778   0.0000000), wk =   0.0185185
        k(  118) = (   0.2500000   0.3055556   0.0000000), wk =   0.0185185
        k(  119) = (   0.2500000   0.3333333   0.0000000), wk =   0.0185185
        k(  120) = (   0.2500000   0.3611111   0.0000000), wk =   0.0185185
        k(  121) = (   0.2777778   0.2777778   0.0000000), wk =   0.0092593
        k(  122) = (   0.2777778   0.3055556   0.0000000), wk =   0.0185185
        k(  123) = (   0.2777778   0.3333333   0.0000000), wk =   0.0185185
        k(  124) = (   0.2777778   0.3611111   0.0000000), wk =   0.0092593
        k(  125) = (   0.3055556   0.3055556   0.0000000), wk =   0.0092593
        k(  126) = (   0.3055556   0.3333333   0.0000000), wk =   0.0185185
        k(  127) = (   0.3333333   0.3333333   0.0000000), wk =   0.0030864

     Dense  grid:    86683 G-vectors     FFT dimensions: (  30,  30, 250)

     Dynamical RAM for                 wfc:       0.66 MB

     Dynamical RAM for     wfc (w. buffer):       0.66 MB

     Dynamical RAM for           str. fact:       0.66 MB

     Dynamical RAM for           local pot:       0.00 MB

     Dynamical RAM for          nlocal pot:       1.32 MB

     Dynamical RAM for                qrad:       0.46 MB

     Dynamical RAM for          rho,v,vnew:       4.56 MB

     Dynamical RAM for           G-vectors:       2.81 MB

     Dynamical RAM for          h,s,v(r/c):       0.01 MB

     Dynamical RAM for          <psi|beta>:       0.00 MB

     Dynamical RAM for                 psi:       1.32 MB

     Dynamical RAM for                hpsi:       1.32 MB

     Dynamical RAM for                spsi:       1.32 MB

     Dynamical RAM for      wfcinit/wfcrot:       1.32 MB

     Dynamical RAM for           addusdens:      29.77 MB

     Estimated static dynamical RAM per process >      16.09 MB

     Estimated max dynamical RAM per process >      45.86 MB

     Estimated total dynamical RAM >      91.71 MB

     Check: negative core charge=   -0.000002

     The potential is recalculated from file :
     ./tmp/graphene1.save/charge-density


     negative rho (up, down):  1.319E-04 0.000E+00
     Starting wfcs are    8 randomized atomic wfcs
     Checking if some PAW data can be deallocated... 

     Band Structure Calculation
     Davidson diagonalization with overlap

     Computing kpt #:     1  of   127
     total cpu time spent up to now is       10.0 secs

     Computing kpt #:     2  of   127
     total cpu time spent up to now is       17.5 secs

     Computing kpt #:     3  of   127
     total cpu time spent up to now is       25.4 secs

     Computing kpt #:     4  of   127
     total cpu time spent up to now is       32.8 secs

     Computing kpt #:     5  of   127
     total cpu time spent up to now is       39.4 secs

     Computing kpt #:     6  of   127
     total cpu time spent up to now is       47.9 secs

     Computing kpt #:     7  of   127
     total cpu time spent up to now is       55.8 secs

     Computing kpt #:     8  of   127
     total cpu time spent up to now is       62.4 secs

     Computing kpt #:     9  of   127
     total cpu time spent up to now is       69.3 secs

     Computing kpt #:    10  of   127
     total cpu time spent up to now is       77.0 secs

     Computing kpt #:    11  of   127
     total cpu time spent up to now is       84.9 secs

     Computing kpt #:    12  of   127
     total cpu time spent up to now is       91.4 secs

     Computing kpt #:    13  of   127
     total cpu time spent up to now is       97.6 secs

     Computing kpt #:    14  of   127
     total cpu time spent up to now is      104.3 secs

     Computing kpt #:    15  of   127
     total cpu time spent up to now is      114.3 secs

     Computing kpt #:    16  of   127
     total cpu time spent up to now is      122.4 secs

     Computing kpt #:    17  of   127
     total cpu time spent up to now is      129.3 secs

     Computing kpt #:    18  of   127
     total cpu time spent up to now is      135.5 secs

     Computing kpt #:    19  of   127
     total cpu time spent up to now is      140.6 secs

     Computing kpt #:    20  of   127
     total cpu time spent up to now is      147.2 secs

     Computing kpt #:    21  of   127
     total cpu time spent up to now is      154.1 secs

     Computing kpt #:    22  of   127
     total cpu time spent up to now is      160.6 secs

     Computing kpt #:    23  of   127
     total cpu time spent up to now is      167.1 secs

     Computing kpt #:    24  of   127
     total cpu time spent up to now is      174.5 secs

     Computing kpt #:    25  of   127
     total cpu time spent up to now is      182.1 secs

     Computing kpt #:    26  of   127
     total cpu time spent up to now is      189.7 secs

     Computing kpt #:    27  of   127
     total cpu time spent up to now is      193.0 secs

     Computing kpt #:    28  of   127
     total cpu time spent up to now is      196.4 secs

     Computing kpt #:    29  of   127
     total cpu time spent up to now is      199.6 secs

     Computing kpt #:    30  of   127
     total cpu time spent up to now is      202.7 secs

     Computing kpt #:    31  of   127
     total cpu time spent up to now is      205.7 secs

     Computing kpt #:    32  of   127
     total cpu time spent up to now is      208.5 secs

     Computing kpt #:    33  of   127
     total cpu time spent up to now is      212.2 secs

     Computing kpt #:    34  of   127
     total cpu time spent up to now is      215.5 secs

     Computing kpt #:    35  of   127
     total cpu time spent up to now is      219.2 secs

     Computing kpt #:    36  of   127
     total cpu time spent up to now is      222.9 secs

     Computing kpt #:    37  of   127
     total cpu time spent up to now is      225.7 secs

     Computing kpt #:    38  of   127
     total cpu time spent up to now is      228.7 secs

     Computing kpt #:    39  of   127
     total cpu time spent up to now is      232.1 secs

     Computing kpt #:    40  of   127
     total cpu time spent up to now is      235.4 secs

     Computing kpt #:    41  of   127
     total cpu time spent up to now is      238.8 secs

     Computing kpt #:    42  of   127
     total cpu time spent up to now is      241.9 secs

     Computing kpt #:    43  of   127
     total cpu time spent up to now is      245.5 secs

     Computing kpt #:    44  of   127
     total cpu time spent up to now is      249.5 secs

     Computing kpt #:    45  of   127
     total cpu time spent up to now is      252.5 secs

     Computing kpt #:    46  of   127
     total cpu time spent up to now is      255.3 secs

     Computing kpt #:    47  of   127
     total cpu time spent up to now is      258.2 secs

     Computing kpt #:    48  of   127
     total cpu time spent up to now is      261.7 secs

     Computing kpt #:    49  of   127
     total cpu time spent up to now is      265.3 secs

     Computing kpt #:    50  of   127
     total cpu time spent up to now is      268.8 secs

     Computing kpt #:    51  of   127
     total cpu time spent up to now is      271.8 secs

     Computing kpt #:    52  of   127
     total cpu time spent up to now is      274.2 secs

     Computing kpt #:    53  of   127
     total cpu time spent up to now is      277.2 secs

     Computing kpt #:    54  of   127
     total cpu time spent up to now is      280.6 secs

     Computing kpt #:    55  of   127
     total cpu time spent up to now is      286.7 secs

     Computing kpt #:    56  of   127
     total cpu time spent up to now is      294.1 secs

     Computing kpt #:    57  of   127
     total cpu time spent up to now is      301.1 secs

     Computing kpt #:    58  of   127
     total cpu time spent up to now is      310.0 secs

     Computing kpt #:    59  of   127
     total cpu time spent up to now is      316.9 secs

     Computing kpt #:    60  of   127
     total cpu time spent up to now is      323.3 secs

     Computing kpt #:    61  of   127
     total cpu time spent up to now is      329.7 secs

     Computing kpt #:    62  of   127
     total cpu time spent up to now is      336.4 secs

     Computing kpt #:    63  of   127
     total cpu time spent up to now is      344.8 secs

     Computing kpt #:    64  of   127
     total cpu time spent up to now is      352.0 secs

     Computing kpt #:    65  of   127
     total cpu time spent up to now is      358.7 secs

     Computing kpt #:    66  of   127
     total cpu time spent up to now is      366.6 secs

     Computing kpt #:    67  of   127
     total cpu time spent up to now is      373.3 secs

     Computing kpt #:    68  of   127
     total cpu time spent up to now is      380.4 secs

     Computing kpt #:    69  of   127
     total cpu time spent up to now is      387.8 secs

     Computing kpt #:    70  of   127
     total cpu time spent up to now is      396.4 secs

     Computing kpt #:    71  of   127
     total cpu time spent up to now is      402.7 secs

     Computing kpt #:    72  of   127
     total cpu time spent up to now is      408.8 secs

     Computing kpt #:    73  of   127
     total cpu time spent up to now is      414.8 secs

     Computing kpt #:    74  of   127
     total cpu time spent up to now is      420.8 secs

     Computing kpt #:    75  of   127
     total cpu time spent up to now is      426.7 secs

     Computing kpt #:    76  of   127
     total cpu time spent up to now is      435.6 secs

     Computing kpt #:    77  of   127
     total cpu time spent up to now is      442.6 secs

     Computing kpt #:    78  of   127
     total cpu time spent up to now is      449.1 secs

     Computing kpt #:    79  of   127
     total cpu time spent up to now is      454.7 secs

     Computing kpt #:    80  of   127
     total cpu time spent up to now is      461.9 secs

     Computing kpt #:    81  of   127
     total cpu time spent up to now is      469.4 secs

     Computing kpt #:    82  of   127
     total cpu time spent up to now is      476.9 secs

     Computing kpt #:    83  of   127
     total cpu time spent up to now is      483.0 secs

     Computing kpt #:    84  of   127
     total cpu time spent up to now is      489.0 secs

     Computing kpt #:    85  of   127
     total cpu time spent up to now is      495.0 secs

     Computing kpt #:    86  of   127
     total cpu time spent up to now is      500.9 secs

     Computing kpt #:    87  of   127
     total cpu time spent up to now is      507.0 secs

     Computing kpt #:    88  of   127
     total cpu time spent up to now is      515.5 secs

     Computing kpt #:    89  of   127
     total cpu time spent up to now is      522.2 secs

     Computing kpt #:    90  of   127
     total cpu time spent up to now is      529.4 secs

     Computing kpt #:    91  of   127
     total cpu time spent up to now is      535.9 secs

     Computing kpt #:    92  of   127
     total cpu time spent up to now is      542.6 secs

     Computing kpt #:    93  of   127
     total cpu time spent up to now is      548.7 secs

     Computing kpt #:    94  of   127
     total cpu time spent up to now is      554.9 secs

     Computing kpt #:    95  of   127
     total cpu time spent up to now is      561.0 secs

     Computing kpt #:    96  of   127
     total cpu time spent up to now is      567.0 secs

     Computing kpt #:    97  of   127
     total cpu time spent up to now is      573.4 secs

     Computing kpt #:    98  of   127
     total cpu time spent up to now is      581.4 secs

     Computing kpt #:    99  of   127
     total cpu time spent up to now is      587.4 secs

     Computing kpt #:   100  of   127
     total cpu time spent up to now is      596.0 secs

     Computing kpt #:   101  of   127
     total cpu time spent up to now is      601.7 secs

     Computing kpt #:   102  of   127
     total cpu time spent up to now is      607.6 secs

     Computing kpt #:   103  of   127
     total cpu time spent up to now is      613.4 secs

     Computing kpt #:   104  of   127
     total cpu time spent up to now is      619.4 secs

     Computing kpt #:   105  of   127
     total cpu time spent up to now is      625.6 secs

     Computing kpt #:   106  of   127
     total cpu time spent up to now is      632.1 secs

     Computing kpt #:   107  of   127
     total cpu time spent up to now is      639.2 secs

     Computing kpt #:   108  of   127
     total cpu time spent up to now is      645.3 secs

     Computing kpt #:   109  of   127
     total cpu time spent up to now is      651.1 secs

     Computing kpt #:   110  of   127
     total cpu time spent up to now is      657.0 secs

     Computing kpt #:   111  of   127
     total cpu time spent up to now is      663.1 secs

     Computing kpt #:   112  of   127
     total cpu time spent up to now is      669.4 secs

     Computing kpt #:   113  of   127
     total cpu time spent up to now is      676.2 secs

     Computing kpt #:   114  of   127
     total cpu time spent up to now is      684.0 secs

     Computing kpt #:   115  of   127
     total cpu time spent up to now is      691.2 secs

     Computing kpt #:   116  of   127
     total cpu time spent up to now is      697.1 secs

     Computing kpt #:   117  of   127
     total cpu time spent up to now is      703.2 secs

     Computing kpt #:   118  of   127
     total cpu time spent up to now is      709.7 secs

     Computing kpt #:   119  of   127
     total cpu time spent up to now is      717.3 secs

     Computing kpt #:   120  of   127
     total cpu time spent up to now is      724.2 secs

     Computing kpt #:   121  of   127
     total cpu time spent up to now is      730.8 secs

     Computing kpt #:   122  of   127
     total cpu time spent up to now is      738.6 secs

     Computing kpt #:   123  of   127
     total cpu time spent up to now is      747.2 secs

     Computing kpt #:   124  of   127
     total cpu time spent up to now is      753.5 secs

     Computing kpt #:   125  of   127
     total cpu time spent up to now is      763.5 secs

     Computing kpt #:   126  of   127
     total cpu time spent up to now is      771.9 secs

     Computing kpt #:   127  of   127
     total cpu time spent up to now is      779.9 secs

     ethr =  1.25E-12,  avg # of iterations = 62.7

     total cpu time spent up to now is      780.0 secs

     End of band structure calculation

          k = 0.0000 0.0000 0.0000 ( 10735 PWs)   bands (ev):

   -22.5458 -10.4679  -4.7094  -4.7094   0.9425   1.6306   1.7577   2.7651

     occupation numbers 
     1.0000   1.0000   1.0000   1.0000   0.0000   0.0000   0.0000   0.0000

          k = 0.0000 0.0321 0.0000 ( 10749 PWs)   bands (ev):

   -22.5259 -10.4432  -4.7901  -4.7567   0.9699   1.6586   1.7857   2.7930

     occupation numbers 
     1.0000   1.0000   1.0000   1.0000   0.0000   0.0000   0.0000   0.0000

          k = 0.0000 0.0642 0.0000 ( 10755 PWs)   bands (ev):

   -22.4662 -10.3692  -5.0268  -4.8937   1.0522   1.7424   1.8699   2.8766

     occupation numbers 
     1.0000   1.0000   1.0000   1.0000   0.0000   0.0000   0.0000   0.0000

          k = 0.0000 0.0962 0.0000 ( 10747 PWs)   bands (ev):

   -22.3669 -10.2461  -5.4046  -5.1075   1.1894   1.8821   2.0102   3.0159

     occupation numbers 
     1.0000   1.0000   1.0000   1.0000   0.0000   0.0000   0.0000   0.0000

          k = 0.0000 0.1283 0.0000 ( 10748 PWs)   bands (ev):

   -22.2279 -10.0743  -5.9025  -5.3805   1.3815   2.0776   2.2067   3.2109

     occupation numbers 
     1.0000   1.0000   1.0000   1.0000   0.0000   0.0000   0.0000   0.0000

          k = 0.0000 0.1604 0.0000 ( 10756 PWs)   bands (ev):

   -22.0495  -9.8541  -6.4977  -5.6940   1.6286   2.3288   2.4593   3.4614

     occupation numbers 
     1.0000   1.0000   1.0000   1.0000   0.0000   0.0000   0.0000   0.0000

          k = 0.0000 0.1925 0.0000 ( 10774 PWs)   bands (ev):

   -21.8318  -9.5862  -7.1677  -6.0306   1.9306   2.6356   2.7681   3.7672

     occupation numbers 
     1.0000   1.0000   1.0000   1.0000   0.0000   0.0000   0.0000   0.0000

          k = 0.0000 0.2245 0.0000 ( 10780 PWs)   bands (ev):

   -21.5751  -9.2717  -7.8928  -6.3756   2.2874   2.9978   3.1330   4.1280

     occupation numbers 
     1.0000   1.0000   1.0000   1.0000   0.0000   0.0000   0.0000   0.0000

          k = 0.0000 0.2566 0.0000 ( 10800 PWs)   bands (ev):

   -21.2798  -8.9116  -8.6560  -6.7169   2.6988   3.4147   3.5540   4.5427

     occupation numbers 
     1.0000   1.0000   1.0000   1.0000   0.0000   0.0000   0.0000   0.0000

          k = 0.0000 0.2887 0.0000 ( 10800 PWs)   bands (ev):

   -20.9461  -9.4433  -8.5077  -7.0452   3.1647   3.8847   4.0312   5.0069

     occupation numbers 
     1.0000   1.0000   1.0000   1.0000   0.0000   0.0000   0.0000   0.0000

          k = 0.0000 0.3208 0.0000 ( 10824 PWs)   bands (ev):

   -20.5745 -10.2433  -8.0623  -7.3529   3.6846   4.3990   4.5645   5.4305

     occupation numbers 
     1.0000   1.0000   1.0000   1.0000   0.0000   0.0000   0.0000   0.0000

          k = 0.0000 0.3528 0.0000 ( 10824 PWs)   bands (ev):

   -20.1655 -11.0465  -7.6344  -7.5788   4.2583   4.6170   5.1025   5.1537

     occupation numbers 
     1.0000   1.0000   1.0000   1.0000   0.0000   0.0000   0.0000   0.0000

          k = 0.0000 0.3849 0.0000 ( 10826 PWs)   bands (ev):

   -19.7199 -11.8455  -7.8854  -7.0623   3.7855   4.8850   5.6733   5.7987

     occupation numbers 
     1.0000   1.0000   1.0000   1.0000   0.0000   0.0000   0.0000   0.0000

          k = 0.0000 0.4170 0.0000 ( 10840 PWs)   bands (ev):

   -19.2384 -12.6339  -8.1024  -6.5206   2.9067   5.5631   6.3598   6.4986

     occupation numbers 
     1.0000   1.0000   1.0000   1.0000   0.0000   0.0000   0.0000   0.0000

          k = 0.0000 0.4491 0.0000 ( 10848 PWs)   bands (ev):

   -18.7222 -13.4064  -8.2829  -5.9668   2.0626   6.2876   7.1057   7.2317

     occupation numbers 
     1.0000   1.0000   1.0000   1.0000   0.0000   0.0000   0.0000   0.0000

          k = 0.0000 0.4811 0.0000 ( 10846 PWs)   bands (ev):

   -18.1729 -14.1580  -8.4251  -5.4239   1.2870   7.0089   7.3822   7.9067

     occupation numbers 
     1.0000   1.0000   1.0000   1.0000   0.0000   0.0000   0.0000   0.0000

          k = 0.0000 0.5132 0.0000 ( 10842 PWs)   bands (ev):

   -17.5940 -14.8830  -8.5276  -4.9336   0.6272   7.2254   7.9721   8.7605

     occupation numbers 
     1.0000   1.0000   1.0000   1.0000   0.0000   0.0000   0.0000   0.0000

          k = 0.0000 0.5453 0.0000 ( 10854 PWs)   bands (ev):

   -16.9984 -15.5669  -8.5894  -4.5692   0.1599   7.2240   8.8378   9.6645

     occupation numbers 
     1.0000   1.0000   1.0000   1.0000   0.0000   0.0000   0.0000   0.0000

          k = 0.0000-0.5774 0.0000 ( 10852 PWs)   bands (ev):

   -16.5602 -16.0346  -8.6101  -4.4297  -0.0142   7.2203   9.7011   9.8338

     occupation numbers 
     1.0000   1.0000   1.0000   1.0000   0.0000   0.0000   0.0000   0.0000

          k = 0.0278 0.0481 0.0000 ( 10725 PWs)   bands (ev):

   -22.4861 -10.3939  -4.9465  -4.8512   1.0247   1.7145   1.8419   2.8487

     occupation numbers 
     1.0000   1.0000   1.0000   1.0000   0.0000   0.0000   0.0000   0.0000

          k = 0.0278 0.0802 0.0000 ( 10740 PWs)   bands (ev):

   -22.4066 -10.2953  -5.2477  -5.0325   1.1345   1.8262   1.9541   2.9602

     occupation numbers 
     1.0000   1.0000   1.0000   1.0000   0.0000   0.0000   0.0000   0.0000

          k = 0.0278 0.1123 0.0000 ( 10740 PWs)   bands (ev):

   -22.2874 -10.1479  -5.6783  -5.2833   1.2992   1.9938   2.1225   3.1273

     occupation numbers 
     1.0000   1.0000   1.0000   1.0000   0.0000   0.0000   0.0000   0.0000

          k = 0.0278 0.1443 0.0000 ( 10743 PWs)   bands (ev):

   -22.1287  -9.9518  -6.2177  -5.5837   1.5188   2.2172   2.3470   3.3501

     occupation numbers 
     1.0000   1.0000   1.0000   1.0000   0.0000   0.0000   0.0000   0.0000

          k = 0.0278 0.1764 0.0000 ( 10758 PWs)   bands (ev):

   -21.9307  -9.7078  -6.8441  -5.9149   1.7934   2.4962   2.6277   3.6283

     occupation numbers 
     1.0000   1.0000   1.0000   1.0000   0.0000   0.0000   0.0000   0.0000

          k = 0.0278 0.2085 0.0000 ( 10779 PWs)   bands (ev):

   -21.6935  -9.4165  -7.5366  -6.2607   2.1228   2.8307   2.9646   3.9616

     occupation numbers 
     1.0000   1.0000   1.0000   1.0000   0.0000   0.0000   0.0000   0.0000

          k = 0.0278 0.2406 0.0000 ( 10797 PWs)   bands (ev):

   -21.4175  -9.0791  -8.2767  -6.6077   2.5070   3.2203   3.3576   4.3496

     occupation numbers 
     1.0000   1.0000   1.0000   1.0000   0.0000   0.0000   0.0000   0.0000

          k = 0.0278 0.2726 0.0000 ( 10818 PWs)   bands (ev):

   -21.1030  -9.0490  -8.6970  -6.9454   2.9457   3.6642   3.8067   4.7902

     occupation numbers 
     1.0000   1.0000   1.0000   1.0000   0.0000   0.0000   0.0000   0.0000

          k = 0.0278 0.3047 0.0000 ( 10809 PWs)   bands (ev):

   -20.7503  -9.8403  -8.2721  -7.2654   3.4387   4.1589   4.3119   5.2694

     occupation numbers 
     1.0000   1.0000   1.0000   1.0000   0.0000   0.0000   0.0000   0.0000

          k = 0.0278 0.3368 0.0000 ( 10829 PWs)   bands (ev):

   -20.3601 -10.6402  -7.8073  -7.5615   3.9857   4.6637   4.8732   5.2000

     occupation numbers 
     1.0000   1.0000   1.0000   1.0000   0.0000   0.0000   0.0000   0.0000

          k = 0.0278 0.3689 0.0000 ( 10829 PWs)   bands (ev):

   -19.9328 -11.4400  -7.8287  -7.3067   4.2146   4.5860   5.3774   5.4904

     occupation numbers 
     1.0000   1.0000   1.0000   1.0000   0.0000   0.0000   0.0000   0.0000

          k = 0.0278 0.4009 0.0000 ( 10841 PWs)   bands (ev):

   -19.4693 -12.2328  -8.0634  -6.7764   3.3364   5.2389   6.0278   6.1632

     occupation numbers 
     1.0000   1.0000   1.0000   1.0000   0.0000   0.0000   0.0000   0.0000

          k = 0.0278 0.4330 0.0000 ( 10839 PWs)   bands (ev):

   -18.9704 -13.0125  -8.2626  -6.2266   2.4730   5.9419   6.7451   6.8893

     occupation numbers 
     1.0000   1.0000   1.0000   1.0000   0.0000   0.0000   0.0000   0.0000

          k = 0.0278 0.4651 0.0000 ( 10836 PWs)   bands (ev):

   -18.4376 -13.7742  -8.4243  -5.6744   1.6603   6.6845   7.4258   7.5186

     occupation numbers 
     1.0000   1.0000   1.0000   1.0000   0.0000   0.0000   0.0000   0.0000

          k = 0.0278 0.4972 0.0000 ( 10838 PWs)   bands (ev):

   -17.8731 -14.5125  -8.5468  -5.1506   0.9363   7.2696   7.6257   8.3457

     occupation numbers 
     1.0000   1.0000   1.0000   1.0000   0.0000   0.0000   0.0000   0.0000

          k = 0.0278 0.5292 0.0000 ( 10841 PWs)   bands (ev):

   -17.2830 -15.2196  -8.6291  -4.7113   0.3614   7.3145   8.4158   9.2241

     occupation numbers 
     1.0000   1.0000   1.0000   1.0000   0.0000   0.0000   0.0000   0.0000

          k = 0.0278 0.5613 0.0000 ( 10852 PWs)   bands (ev):

   -16.7053 -15.8561  -8.6704  -4.4468   0.0285   7.3095   9.3122  10.1493

     occupation numbers 
     1.0000   1.0000   1.0000   1.0000   0.0000   0.0000   0.0000   0.0000

          k = 0.0556 0.0962 0.0000 ( 10737 PWs)   bands (ev):

   -22.3073 -10.1724  -5.5912  -5.2615   1.2717   1.9659   2.0944   3.0995

     occupation numbers 
     1.0000   1.0000   1.0000   1.0000   0.0000   0.0000   0.0000   0.0000

          k = 0.0556 0.1283 0.0000 ( 10728 PWs)   bands (ev):

   -22.1684 -10.0007  -6.0466  -5.5562   1.4640   2.1613   2.2909   3.2944

     occupation numbers 
     1.0000   1.0000   1.0000   1.0000   0.0000   0.0000   0.0000   0.0000

          k = 0.0556 0.1604 0.0000 ( 10750 PWs)   bands (ev):

   -21.9901  -9.7808  -6.6006  -5.8911   1.7112   2.4125   2.5435   3.5449

     occupation numbers 
     1.0000   1.0000   1.0000   1.0000   0.0000   0.0000   0.0000   0.0000

          k = 0.0556 0.1925 0.0000 ( 10776 PWs)   bands (ev):

   -21.7725  -9.5133  -7.2353  -6.2455   2.0133   2.7193   2.8523   3.8507

     occupation numbers 
     1.0000   1.0000   1.0000   1.0000   0.0000   0.0000   0.0000   0.0000

          k = 0.0556 0.2245 0.0000 ( 10790 PWs)   bands (ev):

   -21.5160  -9.1991  -7.9320  -6.6041   2.3702   3.0814   3.2173   4.2115

     occupation numbers 
     1.0000   1.0000   1.0000   1.0000   0.0000   0.0000   0.0000   0.0000

          k = 0.0556 0.2566 0.0000 ( 10812 PWs)   bands (ev):

   -21.2209  -8.8395  -8.6730  -6.9553   2.7817   3.4984   3.6384   4.6263

     occupation numbers 
     1.0000   1.0000   1.0000   1.0000   0.0000   0.0000   0.0000   0.0000

          k = 0.0556 0.2887 0.0000 ( 10825 PWs)   bands (ev):

   -20.8874  -9.4433  -8.4361  -7.2904   3.2477   3.9685   4.1156   5.0907

     occupation numbers 
     1.0000   1.0000   1.0000   1.0000   0.0000   0.0000   0.0000   0.0000

          k = 0.0556 0.3208 0.0000 ( 10814 PWs)   bands (ev):

   -20.5162 -10.2301  -7.9912  -7.6027   3.7678   4.4825   4.6489   5.4617

     occupation numbers 
     1.0000   1.0000   1.0000   1.0000   0.0000   0.0000   0.0000   0.0000

          k = 0.0556 0.3528 0.0000 ( 10824 PWs)   bands (ev):

   -20.1076 -11.0233  -7.8873  -7.5083   4.3417   4.5963   5.1538   5.2382

     occupation numbers 
     1.0000   1.0000   1.0000   1.0000   0.0000   0.0000   0.0000   0.0000

          k = 0.0556 0.3849 0.0000 ( 10844 PWs)   bands (ev):

   -19.6625 -11.8145  -8.1401  -6.9922   3.7497   4.9687   5.7498   5.8835

     occupation numbers 
     1.0000   1.0000   1.0000   1.0000   0.0000   0.0000   0.0000   0.0000

          k = 0.0556 0.4170 0.0000 ( 10846 PWs)   bands (ev):

   -19.1815 -12.5969  -8.3583  -6.4507   2.8798   5.6478   6.4374   6.5841

     occupation numbers 
     1.0000   1.0000   1.0000   1.0000   0.0000   0.0000   0.0000   0.0000

          k = 0.0556 0.4491 0.0000 ( 10828 PWs)   bands (ev):

   -18.6660 -13.3646  -8.5394  -5.8968   2.0440   6.3758   7.1827   7.3355

     occupation numbers 
     1.0000   1.0000   1.0000   1.0000   0.0000   0.0000   0.0000   0.0000

          k = 0.0556 0.4811 0.0000 ( 10836 PWs)   bands (ev):

   -18.1176 -14.1125  -8.6820  -5.3532   1.2744   7.1346   7.6817   7.9819

     occupation numbers 
     1.0000   1.0000   1.0000   1.0000   0.0000   0.0000   0.0000   0.0000

          k = 0.0556 0.5132 0.0000 ( 10838 PWs)   bands (ev):

   -17.5400 -14.8344  -8.7846  -4.8614   0.6178   7.5593   8.0649   8.8327

     occupation numbers 
     1.0000   1.0000   1.0000   1.0000   0.0000   0.0000   0.0000   0.0000

          k = 0.0556 0.5453 0.0000 ( 10839 PWs)   bands (ev):

   -16.9462 -15.5153  -8.8465  -4.4949   0.1512   7.5705   8.9167   9.7310

     occupation numbers 
     1.0000   1.0000   1.0000   1.0000   0.0000   0.0000   0.0000   0.0000

          k = 0.0556 0.5774 0.0000 ( 10843 PWs)   bands (ev):

   -16.5114 -15.9793  -8.8672  -4.3543  -0.0230   7.5678   9.7748   9.9114

     occupation numbers 
     1.0000   1.0000   1.0000   1.0000   0.0000   0.0000   0.0000   0.0000

          k = 0.0833 0.1443 0.0000 ( 10745 PWs)   bands (ev):

   -22.0099  -9.8052  -6.5023  -5.8998   1.6838   2.3846   2.5155   3.5171

     occupation numbers 
     1.0000   1.0000   1.0000   1.0000   0.0000   0.0000   0.0000   0.0000

          k = 0.0833 0.1764 0.0000 ( 10765 PWs)   bands (ev):

   -21.8121  -9.5618  -7.0432  -6.2792   1.9585   2.6636   2.7962   3.7952

     occupation numbers 
     1.0000   1.0000   1.0000   1.0000   0.0000   0.0000   0.0000   0.0000

          k = 0.0833 0.2085 0.0000 ( 10798 PWs)   bands (ev):

   -21.5752  -9.2713  -7.6621  -6.6663   2.2882   2.9980   3.1331   4.1285

     occupation numbers 
     1.0000   1.0000   1.0000   1.0000   0.0000   0.0000   0.0000   0.0000

          k = 0.0833 0.2406 0.0000 ( 10808 PWs)   bands (ev):

   -21.2996  -8.9348  -8.3444  -7.0442   2.6725   3.3876   3.5262   4.5166

     occupation numbers 
     1.0000   1.0000   1.0000   1.0000   0.0000   0.0000   0.0000   0.0000

          k = 0.0833 0.2726 0.0000 ( 10816 PWs)   bands (ev):

   -20.9855  -9.0727  -8.5536  -7.4033   3.1114   3.8316   3.9754   4.9576

     occupation numbers 
     1.0000   1.0000   1.0000   1.0000   0.0000   0.0000   0.0000   0.0000

          k = 0.0833 0.3047 0.0000 ( 10816 PWs)   bands (ev):

   -20.6334  -9.8311  -8.1298  -7.7377   3.6046   4.3266   4.4807   5.4322

     occupation numbers 
     1.0000   1.0000   1.0000   1.0000   0.0000   0.0000   0.0000   0.0000

          k = 0.0833 0.3368 0.0000 ( 10831 PWs)   bands (ev):

   -20.2439 -10.6062  -8.0433  -7.6660   4.1518   4.7971   5.0421   5.1179

     occupation numbers 
     1.0000   1.0000   1.0000   1.0000   0.0000   0.0000   0.0000   0.0000

          k = 0.0833 0.3689 0.0000 ( 10834 PWs)   bands (ev):

   -19.8175 -11.3873  -8.3166  -7.1664   4.1300   4.7525   5.5255   5.6595

     occupation numbers 
     1.0000   1.0000   1.0000   1.0000   0.0000   0.0000   0.0000   0.0000

          k = 0.0833 0.4009 0.0000 ( 10845 PWs)   bands (ev):

   -19.3550 -12.1656  -8.5550  -6.6369   3.2673   5.4061   6.1829   6.3328

     occupation numbers 
     1.0000   1.0000   1.0000   1.0000   0.0000   0.0000   0.0000   0.0000

          k = 0.0833 0.4330 0.0000 ( 10855 PWs)   bands (ev):

   -18.8574 -12.9343  -8.7565  -6.0873   2.4229   6.1112   6.8997   7.0614

     occupation numbers 
     1.0000   1.0000   1.0000   1.0000   0.0000   0.0000   0.0000   0.0000

          k = 0.0833 0.4651 0.0000 ( 10847 PWs)   bands (ev):

   -18.3261 -13.6872  -8.9195  -5.5343   1.6252   6.8647   7.6703   7.8382

     occupation numbers 
     1.0000   1.0000   1.0000   1.0000   0.0000   0.0000   0.0000   0.0000

          k = 0.0833 0.4972 0.0000 ( 10843 PWs)   bands (ev):

   -17.7637 -14.4186  -9.0427  -5.0083   0.9108   7.6426   8.0847   8.4919

     occupation numbers 
     1.0000   1.0000   1.0000   1.0000   0.0000   0.0000   0.0000   0.0000

          k = 0.0833 0.5292 0.0000 ( 10856 PWs)   bands (ev):

   -17.1766 -15.1197  -9.1253  -4.5651   0.3399   7.9784   8.5837   9.3603

     occupation numbers 
     1.0000   1.0000   1.0000   1.0000   0.0000   0.0000   0.0000   0.0000

          k = 0.0833 0.5613 0.0000 ( 10863 PWs)   bands (ev):

   -16.6040 -15.7496  -9.1667  -4.2967   0.0070   7.9835   9.4660  10.2616

     occupation numbers 
     1.0000   1.0000   1.0000   1.0000   0.0000   0.0000   0.0000   0.0000

          k = 0.1111 0.1925 0.0000 ( 10775 PWs)   bands (ev):

   -21.5949  -9.2954  -7.5496  -6.7100   2.2608   2.9702   3.1051   4.1009

     occupation numbers 
     1.0000   1.0000   1.0000   1.0000   0.0000   0.0000   0.0000   0.0000

          k = 0.1111 0.2245 0.0000 ( 10800 PWs)   bands (ev):

   -21.3389  -8.9824  -8.1269  -7.1436   2.6180   3.3322   3.4701   4.4616

     occupation numbers 
     1.0000   1.0000   1.0000   1.0000   0.0000   0.0000   0.0000   0.0000

          k = 0.1111 0.2566 0.0000 ( 10829 PWs)   bands (ev):

   -21.0444  -8.7726  -8.6242  -7.5530   3.0297   3.7492   3.8913   4.8767

     occupation numbers 
     1.0000   1.0000   1.0000   1.0000   0.0000   0.0000   0.0000   0.0000

          k = 0.1111 0.2887 0.0000 ( 10835 PWs)   bands (ev):

   -20.7117  -9.4724  -8.2224  -7.9280   3.4958   4.2197   4.3686   5.3417

     occupation numbers 
     1.0000   1.0000   1.0000   1.0000   0.0000   0.0000   0.0000   0.0000

          k = 0.1111 0.3208 0.0000 ( 10839 PWs)   bands (ev):

   -20.3414 -10.2083  -8.2662  -7.7792   4.0161   4.7317   4.9020   5.3330

     occupation numbers 
     1.0000   1.0000   1.0000   1.0000   0.0000   0.0000   0.0000   0.0000

          k = 0.1111 0.3528 0.0000 ( 10830 PWs)   bands (ev):

   -19.9340 -10.9645  -8.5671  -7.2979   4.4561   4.5902   5.3541   5.4915

     occupation numbers 
     1.0000   1.0000   1.0000   1.0000   0.0000   0.0000   0.0000   0.0000

          k = 0.1111 0.3849 0.0000 ( 10864 PWs)   bands (ev):

   -19.4903 -11.7283  -8.8302  -6.7833   3.6150   5.2175   5.9816   6.1369

     occupation numbers 
     1.0000   1.0000   1.0000   1.0000   0.0000   0.0000   0.0000   0.0000

          k = 0.1111 0.4170 0.0000 ( 10853 PWs)   bands (ev):

   -19.0111 -12.4901  -9.0546  -6.2427   2.7772   5.8973   6.6699   6.8383

     occupation numbers 
     1.0000   1.0000   1.0000   1.0000   0.0000   0.0000   0.0000   0.0000

          k = 0.1111 0.4491 0.0000 ( 10853 PWs)   bands (ev):

   -18.4977 -13.2422  -9.2396  -5.6887   1.9692   6.6283   7.4113   7.5950

     occupation numbers 
     1.0000   1.0000   1.0000   1.0000   0.0000   0.0000   0.0000   0.0000

          k = 0.1111 0.4811 0.0000 ( 10853 PWs)   bands (ev):

   -17.9521 -13.9778  -9.3843  -5.1429   1.2194   7.4074   8.2027   8.3997

     occupation numbers 
     1.0000   1.0000   1.0000   1.0000   0.0000   0.0000   0.0000   0.0000

          k = 0.1111 0.5132 0.0000 ( 10855 PWs)   bands (ev):

   -17.3781 -14.6897  -9.4882  -4.6462   0.5736   8.2117   8.6132   9.0386

     occupation numbers 
     1.0000   1.0000   1.0000   1.0000   0.0000   0.0000   0.0000   0.0000

          k = 0.1111 0.5453 0.0000 ( 10862 PWs)   bands (ev):

   -16.7898 -15.3616  -9.5507  -4.2728   0.1094   8.5276   9.1574   9.9049

     occupation numbers 
     1.0000   1.0000   1.0000   1.0000   0.0000   0.0000   0.0000   0.0000

          k = 0.1111 0.5774 0.0000 ( 10875 PWs)   bands (ev):

   -16.3649 -15.8145  -9.5716  -4.1283  -0.0656   8.5322   9.9942  10.1433

     occupation numbers 
     1.0000   1.0000   1.0000   1.0000   0.0000   0.0000   0.0000   0.0000

          k = 0.1389 0.2406 0.0000 ( 10839 PWs)   bands (ev):

   -21.0640  -8.6478  -8.6432  -7.6332   3.0025   3.7217   3.8633   4.8497

     occupation numbers 
     1.0000   1.0000   1.0000   1.0000   0.0000   0.0000   0.0000   0.0000

          k = 0.1389 0.2726 0.0000 ( 10839 PWs)   bands (ev):

   -20.7509  -9.2262  -8.2688  -8.0927   3.4415   4.1658   4.3125   5.2917

     occupation numbers 
     1.0000   1.0000   1.0000   1.0000   0.0000   0.0000   0.0000   0.0000

          k = 0.1389 0.3047 0.0000 ( 10839 PWs)   bands (ev):

   -20.4000  -9.8758  -8.4991  -7.8473   3.9347   4.6619   4.8179   5.5155

     occupation numbers 
     1.0000   1.0000   1.0000   1.0000   0.0000   0.0000   0.0000   0.0000

          k = 0.1389 0.3368 0.0000 ( 10843 PWs)   bands (ev):

   -20.0118 -10.5749  -8.8503  -7.3860   4.4819   4.7038   5.2337   5.3794

     occupation numbers 
     1.0000   1.0000   1.0000   1.0000   0.0000   0.0000   0.0000   0.0000

          k = 0.1389 0.3689 0.0000 ( 10849 PWs)   bands (ev):

   -19.5871 -11.3033  -9.1513  -6.8887   3.8971   5.0825   5.8342   5.9969

     occupation numbers 
     1.0000   1.0000   1.0000   1.0000   0.0000   0.0000   0.0000   0.0000

          k = 0.1389 0.4009 0.0000 ( 10856 PWs)   bands (ev):

   -19.1267 -12.0444  -9.4065  -6.3611   3.0827   5.7360   6.4941   6.6704

     occupation numbers 
     1.0000   1.0000   1.0000   1.0000   0.0000   0.0000   0.0000   0.0000

          k = 0.1389 0.4330 0.0000 ( 10860 PWs)   bands (ev):

   -18.6318 -12.7859  -9.6181  -5.8123   2.2827   6.4415   7.2059   7.3998

     occupation numbers 
     1.0000   1.0000   1.0000   1.0000   0.0000   0.0000   0.0000   0.0000

          k = 0.1389 0.4651 0.0000 ( 10865 PWs)   bands (ev):

   -18.1038 -13.5186  -9.7871  -5.2580   1.5195   7.1976   7.9657   8.1846

     occupation numbers 
     1.0000   1.0000   1.0000   1.0000   0.0000   0.0000   0.0000   0.0000

          k = 0.1389 0.4972 0.0000 ( 10865 PWs)   bands (ev):

   -17.5457 -14.2343  -9.9138  -4.7272   0.8272   8.0011   8.7667   9.0197

     occupation numbers 
     1.0000   1.0000   1.0000   1.0000   0.0000   0.0000   0.0000   0.0000

          k = 0.1389 0.5292 0.0000 ( 10874 PWs)   bands (ev):

   -16.9644 -14.9224  -9.9983  -4.2750   0.2651   8.8357   9.2456   9.5901

     occupation numbers 
     1.0000   1.0000   1.0000   1.0000   0.0000   0.0000   0.0000   0.0000

          k = 0.1389 0.5613 0.0000 ( 10883 PWs)   bands (ev):

   -16.4022 -15.5385 -10.0406  -3.9974  -0.0682   9.1850   9.7753  10.3524

     occupation numbers 
     1.0000   1.0000   1.0000   1.0000   0.0000   0.0000   0.0000   0.0000

          k = 0.1667 0.2887 0.0000 ( 10853 PWs)   bands (ev):

   -20.4195  -9.7270  -8.6155  -7.8701   3.9076   4.6370   4.7899   5.5891

     occupation numbers 
     1.0000   1.0000   1.0000   1.0000   0.0000   0.0000   0.0000   0.0000

          k = 0.1667 0.3208 0.0000 ( 10851 PWs)   bands (ev):

   -20.0508 -10.2975  -9.0773  -7.4302   4.4277   4.8457   5.1648   5.3233

     occupation numbers 
     1.0000   1.0000   1.0000   1.0000   0.0000   0.0000   0.0000   0.0000

          k = 0.1667 0.3528 0.0000 ( 10865 PWs)   bands (ev):

   -19.6453 -10.9373  -9.4602  -6.9523   4.0843   5.0014   5.7428   5.9129

     occupation numbers 
     1.0000   1.0000   1.0000   1.0000   0.0000   0.0000   0.0000   0.0000

          k = 0.1667 0.3849 0.0000 ( 10859 PWs)   bands (ev):

   -19.2040 -11.6245  -9.7718  -6.4407   3.3107   5.6281   6.3742   6.5584

     occupation numbers 
     1.0000   1.0000   1.0000   1.0000   0.0000   0.0000   0.0000   0.0000

          k = 0.1667 0.4170 0.0000 ( 10856 PWs)   bands (ev):

   -18.7278 -12.3353 -10.0241  -5.9024   2.5383   6.3072   7.0557   7.2599

     occupation numbers 
     1.0000   1.0000   1.0000   1.0000   0.0000   0.0000   0.0000   0.0000

          k = 0.1667 0.4491 0.0000 ( 10870 PWs)   bands (ev):

   -18.2182 -13.0519 -10.2252  -5.3485   1.7838   7.0374   7.7828   8.0172

     occupation numbers 
     1.0000   1.0000   1.0000   1.0000   0.0000   0.0000   0.0000   0.0000

          k = 0.1667 0.4811 0.0000 ( 10870 PWs)   bands (ev):

   -17.6773 -13.7620 -10.3793  -4.7992   1.0725   7.8169   8.5459   8.8301

     occupation numbers 
     1.0000   1.0000   1.0000   1.0000   0.0000   0.0000   0.0000   0.0000

          k = 0.1667 0.5132 0.0000 ( 10872 PWs)   bands (ev):

   -17.1095 -14.4545 -10.4884  -4.2931   0.4473   8.6426   9.3193   9.6952

     occupation numbers 
     1.0000   1.0000   1.0000   1.0000   0.0000   0.0000   0.0000   0.0000

          k = 0.1667 0.5453 0.0000 ( 10876 PWs)   bands (ev):

   -16.5305 -15.1097 -10.5535  -3.9055  -0.0131   9.5028   9.9596  10.0155

     occupation numbers 
     1.0000   1.0000   1.0000   1.0000   0.0000   0.0000   0.0000   0.0000

          k = 0.1667 0.5774 0.0000 ( 10879 PWs)   bands (ev):

   -16.1209 -15.5450 -10.5752  -3.7527  -0.1904   9.9192  10.3458  10.3536

     occupation numbers 
     1.0000   1.0000   1.0000   1.0000   0.0000   0.0000   0.0000   0.0000

          k = 0.1944 0.3368 0.0000 ( 10861 PWs)   bands (ev):

   -19.6647 -10.7671  -9.6123  -6.9735   4.1505   4.9743   5.7116   5.8849

     occupation numbers 
     1.0000   1.0000   1.0000   1.0000   0.0000   0.0000   0.0000   0.0000

          k = 0.1944 0.3689 0.0000 ( 10863 PWs)   bands (ev):

   -19.2427 -11.3142 -10.0573  -6.4808   3.4338   5.5741   6.3130   6.5024

     occupation numbers 
     1.0000   1.0000   1.0000   1.0000   0.0000   0.0000   0.0000   0.0000

          k = 0.1944 0.4009 0.0000 ( 10863 PWs)   bands (ev):

   -18.7855 -11.9361 -10.4010  -5.9571   2.7073   6.2263   6.9634   7.1759

     occupation numbers 
     1.0000   1.0000   1.0000   1.0000   0.0000   0.0000   0.0000   0.0000

          k = 0.1944 0.4330 0.0000 ( 10865 PWs)   bands (ev):

   -18.2946 -12.6036 -10.6613  -5.4106   1.9832   6.9299   7.6570   7.9053

     occupation numbers 
     1.0000   1.0000   1.0000   1.0000   0.0000   0.0000   0.0000   0.0000

          k = 0.1944 0.4651 0.0000 ( 10874 PWs)   bands (ev):

   -17.7718 -13.2886 -10.8568  -4.8551   1.2791   7.6833   8.3802   8.6904

     occupation numbers 
     1.0000   1.0000   1.0000   1.0000   0.0000   0.0000   0.0000   0.0000

          k = 0.1944 0.4972 0.0000 ( 10874 PWs)   bands (ev):

   -17.2203 -13.9718 -10.9979  -4.3166   0.6250   8.4839   9.0970   9.5310

     occupation numbers 
     1.0000   1.0000   1.0000   1.0000   0.0000   0.0000   0.0000   0.0000

          k = 0.1944 0.5292 0.0000 ( 10875 PWs)   bands (ev):

   -16.6481 -14.6358 -11.0900  -3.8477   0.0770   9.3272   9.7042  10.4248

     occupation numbers 
     1.0000   1.0000   1.0000   1.0000   0.0000   0.0000   0.0000   0.0000

          k = 0.1944 0.5613 0.0000 ( 10857 PWs)   bands (ev):

   -16.1010 -15.2299 -11.1356  -3.5511  -0.2598  10.0296  10.2004  10.7189

     occupation numbers 
     1.0000   1.0000   1.0000   1.0000   0.0000   0.0000   0.0000   0.0000

          k = 0.2222 0.3849 0.0000 ( 10879 PWs)   bands (ev):

   -18.8048 -11.7427 -10.5877  -5.9755   2.7667   6.1993   6.9322   7.1479

     occupation numbers 
     1.0000   1.0000   1.0000   1.0000   0.0000   0.0000   0.0000   0.0000

          k = 0.2222 0.4170 0.0000 ( 10879 PWs)   bands (ev):

   -18.3329 -12.2599 -11.0009  -5.4422   2.0910   6.8760   7.5924   7.8493

     occupation numbers 
     1.0000   1.0000   1.0000   1.0000   0.0000   0.0000   0.0000   0.0000

          k = 0.2222 0.4491 0.0000 ( 10863 PWs)   bands (ev):

   -17.8287 -12.8585 -11.2930  -4.8905   1.4180   7.6026   8.2759   8.6064

     occupation numbers 
     1.0000   1.0000   1.0000   1.0000   0.0000   0.0000   0.0000   0.0000

          k = 0.2222 0.4811 0.0000 ( 10872 PWs)   bands (ev):

   -17.2948 -13.4992 -11.4935  -4.3369   0.7666   8.3768   8.9345   9.4192

     occupation numbers 
     1.0000   1.0000   1.0000   1.0000   0.0000   0.0000   0.0000   0.0000

          k = 0.2222 0.5132 0.0000 ( 10875 PWs)   bands (ev):

   -16.7363 -14.1482 -11.6259  -3.8155   0.1730   9.1944   9.4471  10.2871

     occupation numbers 
     1.0000   1.0000   1.0000   1.0000   0.0000   0.0000   0.0000   0.0000

          k = 0.2222 0.5453 0.0000 ( 10879 PWs)   bands (ev):

   -16.1707 -14.7728 -11.7020  -3.4001  -0.2866   9.6994  10.0471  11.2078

     occupation numbers 
     1.0000   1.0000   1.0000   1.0000   0.0000   0.0000   0.0000   0.0000

          k = 0.2222 0.5774 0.0000 ( 10857 PWs)   bands (ev):

   -15.7796 -15.1842 -11.7269  -3.2293  -0.4724   9.7617  10.8409  11.0143

     occupation numbers 
     1.0000   1.0000   1.0000   1.0000   0.0000   0.0000   0.0000   0.0000

          k = 0.2500 0.4330 0.0000 ( 10891 PWs)   bands (ev):

   -17.8477 -12.6410 -11.5131  -4.9025   1.4671   7.5757   8.2401   8.5784

     occupation numbers 
     1.0000   1.0000   1.0000   1.0000   0.0000   0.0000   0.0000   0.0000

          k = 0.2500 0.4651 0.0000 ( 10871 PWs)   bands (ev):

   -17.3323 -13.1242 -11.8814  -4.3486   0.8454   8.3230   8.8473   9.3631

     occupation numbers 
     1.0000   1.0000   1.0000   1.0000   0.0000   0.0000   0.0000   0.0000

          k = 0.2500 0.4972 0.0000 ( 10862 PWs)   bands (ev):

   -16.7904 -13.6934 -12.1116  -3.8002   0.2454   9.1140   9.2754  10.2032

     occupation numbers 
     1.0000   1.0000   1.0000   1.0000   0.0000   0.0000   0.0000   0.0000

          k = 0.2500 0.5292 0.0000 ( 10879 PWs)   bands (ev):

   -16.2312 -14.2940 -12.2442  -3.3019  -0.2878   9.4451   9.9411  11.0977

     occupation numbers 
     1.0000   1.0000   1.0000   1.0000   0.0000   0.0000   0.0000   0.0000

          k = 0.2500 0.5613 0.0000 ( 10880 PWs)   bands (ev):

   -15.7031 -14.8486 -12.3055  -2.9632  -0.6442   9.4803  10.7854  11.6509

     occupation numbers 
     1.0000   1.0000   1.0000   1.0000   0.0000   0.0000   0.0000   0.0000

          k = 0.2778 0.4811 0.0000 ( 10859 PWs)   bands (ev):

   -16.8085 -13.4541 -12.3615  -3.7958   0.2723   9.0872   9.2148  10.1752

     occupation numbers 
     1.0000   1.0000   1.0000   1.0000   0.0000   0.0000   0.0000   0.0000

          k = 0.2778 0.5132 0.0000 ( 10867 PWs)   bands (ev):

   -16.2637 -13.8988 -12.6703  -3.2541  -0.2823   9.3080   9.8877  11.0418

     occupation numbers 
     1.0000   1.0000   1.0000   1.0000   0.0000   0.0000   0.0000   0.0000

          k = 0.2778 0.5453 0.0000 ( 10874 PWs)   bands (ev):

   -15.7165 -14.4190 -12.8239  -2.7822  -0.7611   9.2862  10.7092  11.9605

     occupation numbers 
     1.0000   1.0000   1.0000   1.0000   0.0000   0.0000   0.0000   0.0000

          k = 0.2778 0.5774 0.0000 ( 10869 PWs)   bands (ev):

   -15.3414 -14.7912 -12.8695  -2.5606  -0.9850   9.2685  11.4295  11.6380

     occupation numbers 
     1.0000   1.0000   1.0000   1.0000   0.0000   0.0000   0.0000   0.0000

          k = 0.3056 0.5292 0.0000 ( 10879 PWs)   bands (ev):

   -15.7259 -14.1771 -13.0910  -2.7171  -0.8036   9.2178  10.6831  11.9336

     occupation numbers 
     1.0000   1.0000   1.0000   1.0000   0.0000   0.0000   0.0000   0.0000

          k = 0.3056 0.5613 0.0000 ( 10876 PWs)   bands (ev):

   -15.2194 -14.5587 -13.2974  -2.2630  -1.2487   9.1484  11.4629  12.1955

     occupation numbers 
     1.0000   1.0000   1.0000   1.0000  -0.0000   0.0000   0.0000   0.0000

          k = 0.3333 0.5774 0.0000 ( 10863 PWs)   bands (ev):

   -14.8068 -14.8068 -13.5009  -1.7503  -1.7503   9.0972  12.0629  12.0629

     occupation numbers 
     1.0000   1.0000   1.0000   1.0000   0.0000   0.0000   0.0000   0.0000

     the Fermi energy is    -1.7503 ev
     (compare with:    -1.7502 eV, computed in scf)

     Writing output data file ./tmp/graphene1.save/

     init_run     :      1.28s CPU      1.65s WALL (       1 calls)
     electrons    :    734.56s CPU    777.61s WALL (       1 calls)

     Called by init_run:
     wfcinit      :      0.00s CPU      0.00s WALL (       1 calls)
     wfcinit:atom :      0.24s CPU      0.27s WALL (     127 calls)
     wfcinit:wfcr :     16.97s CPU     17.84s WALL (     127 calls)
     potinit      :      0.33s CPU      0.56s WALL (       1 calls)
     hinit0       :      0.59s CPU      0.61s WALL (       1 calls)

     Called by electrons:
     c_bands      :    734.50s CPU    777.47s WALL (       1 calls)
     v_of_rho     :      0.22s CPU      0.28s WALL (       1 calls)
     v_h          :      0.02s CPU      0.02s WALL (       1 calls)
     v_xc         :      0.20s CPU      0.26s WALL (       1 calls)
     newd         :      0.10s CPU      0.17s WALL (       1 calls)
     PAW_pot      :      0.10s CPU      0.10s WALL (       1 calls)

     Called by c_bands:
     init_us_2    :      0.23s CPU      0.33s WALL (     127 calls)
     cegterg      :    715.53s CPU    757.17s WALL (     462 calls)

     Called by sum_band:

     Called by *egterg:
     cdiaghg      :      1.90s CPU      2.02s WALL (    8084 calls)
     cegterg:over :     39.67s CPU     41.73s WALL (    7957 calls)
     cegterg:upda :     24.44s CPU     25.46s WALL (    7957 calls)
     cegterg:last :     67.24s CPU     70.30s WALL (    4480 calls)
     h_psi        :    561.25s CPU    595.71s WALL (    8546 calls)
     s_psi        :     24.51s CPU     25.70s WALL (    8546 calls)
     g_psi        :      2.94s CPU      3.14s WALL (    7957 calls)

     Called by h_psi:
     h_psi:calbec :     25.91s CPU     27.51s WALL (    8546 calls)
     vloc_psi     :    508.53s CPU    540.08s WALL (    8546 calls)
     add_vuspsi   :     24.59s CPU     25.87s WALL (    8546 calls)

     General routines
     calbec       :     25.81s CPU     27.43s WALL (    8546 calls)
     fft          :      0.16s CPU      0.19s WALL (      12 calls)
     fftw         :    429.20s CPU    456.06s WALL (   74050 calls)
     davcio       :      0.17s CPU      1.65s WALL (     254 calls)

     Parallel routines
     fft_scatt_xy :     88.40s CPU     93.60s WALL (   74062 calls)
     fft_scatt_yz :     65.76s CPU     72.63s WALL (   74062 calls)

     PAW routines
     PAW_pot      :      0.10s CPU      0.10s WALL (       1 calls)

     PWSCF        :  12m16.95s CPU  13m 4.19s WALL


   This run was terminated on:  11:57:41  24Aug2023            

=------------------------------------------------------------------------------=
   JOB DONE.
=------------------------------------------------------------------------------=
