
     Program PROJWFC v.6.7MaX starts on 28Aug2023 at 22:32:55 

     This program is part of the open-source Quantum ESPRESSO suite
     for quantum simulation of materials; please cite
         "P. Giannozzi et al., J. Phys.:Condens. Matter 21 395502 (2009);
         "P. Giannozzi et al., J. Phys.:Condens. Matter 29 465901 (2017);
          URL http://www.quantum-espresso.org", 
     in publications or presentations arising from this work. More details at
     http://www.quantum-espresso.org/quote

     Parallel version (MPI), running on     1 processors

     MPI processes distributed on     1 nodes

     Reading xml data from directory:

     ./tmp/graphene1.save/
     file C.pbe-n-kjpaw_psl.1.0.0.UPF: wavefunction(s)  2S 2P renormalized

     IMPORTANT: XC functional enforced from input :
     Exchange-correlation= PBE
                           (   1   4   3   4   0   0   0)
     Any further DFT definition will be discarded
     Please, verify this is what you really want


     G-vector sticks info
     --------------------
     sticks:   dense  smooth     PW     G-vecs:    dense   smooth      PW
     Sum         547     547    163                86683    86683   14285


     Check: negative core charge=   -0.000002

     negative rho (up, down):  1.319E-04 0.000E+00

     Gaussian broadening (read from input): ngauss,degauss=   0    0.010000


     Calling projwave .... 

  Problem Sizes 
  natomwfc =            8
  nbnd     =            8
  nkstot   =          127
  npwx     =        10891
  nkb      =           16


     Atomic states used for projection
     (read from pseudopotential files):

     state #   1: atom   1 (C  ), wfc  1 (l=0 m= 1)
     state #   2: atom   1 (C  ), wfc  2 (l=1 m= 1)
     state #   3: atom   1 (C  ), wfc  2 (l=1 m= 2)
     state #   4: atom   1 (C  ), wfc  2 (l=1 m= 3)
     state #   5: atom   2 (C  ), wfc  1 (l=0 m= 1)
     state #   6: atom   2 (C  ), wfc  2 (l=1 m= 1)
     state #   7: atom   2 (C  ), wfc  2 (l=1 m= 2)
     state #   8: atom   2 (C  ), wfc  2 (l=1 m= 3)

 k =   0.0000000000  0.0000000000  0.0000000000
==== e(   1) =   -22.54580 eV ==== 
     psi = 0.491*[#   1]+0.491*[#   5]
    |psi|^2 = 0.982
==== e(   2) =   -10.46786 eV ==== 
     psi = 0.468*[#   2]+0.468*[#   6]
    |psi|^2 = 0.937
==== e(   3) =    -4.70941 eV ==== 
     psi = 0.249*[#   3]+0.249*[#   4]+0.249*[#   7]+0.249*[#   8]
    |psi|^2 = 0.997
==== e(   4) =    -4.70941 eV ==== 
     psi = 0.249*[#   3]+0.249*[#   4]+0.249*[#   7]+0.249*[#   8]
    |psi|^2 = 0.997
==== e(   5) =     0.94248 eV ==== 
     psi = 0.004*[#   1]+0.004*[#   5]
    |psi|^2 = 0.007
==== e(   6) =     1.63062 eV ==== 
     psi = 0.010*[#   2]+0.010*[#   6]
    |psi|^2 = 0.019
==== e(   7) =     1.75769 eV ==== 

    |psi|^2 = 0.001
==== e(   8) =     2.76510 eV ==== 
     psi = 0.008*[#   2]+0.008*[#   6]
    |psi|^2 = 0.017

 k =   0.0000000000  0.0320750150  0.0000000000
==== e(   1) =   -22.52591 eV ==== 
     psi = 0.487*[#   1]+0.487*[#   5]+0.002*[#   3]+0.002*[#   4]+0.002*[#   7]
          +0.002*[#   8]
    |psi|^2 = 0.982
==== e(   2) =   -10.44318 eV ==== 
     psi = 0.469*[#   2]+0.469*[#   6]
    |psi|^2 = 0.937
==== e(   3) =    -4.79012 eV ==== 
     psi = 0.249*[#   3]+0.249*[#   4]+0.249*[#   7]+0.249*[#   8]+0.002*[#   1]
          +0.002*[#   5]
    |psi|^2 = 0.997
==== e(   4) =    -4.75667 eV ==== 
     psi = 0.249*[#   3]+0.249*[#   4]+0.249*[#   7]+0.249*[#   8]
    |psi|^2 = 0.997
==== e(   5) =     0.96990 eV ==== 
     psi = 0.003*[#   1]+0.003*[#   5]
    |psi|^2 = 0.010
==== e(   6) =     1.65857 eV ==== 
     psi = 0.010*[#   2]+0.010*[#   6]
    |psi|^2 = 0.019
==== e(   7) =     1.78574 eV ==== 

    |psi|^2 = 0.001
==== e(   8) =     2.79297 eV ==== 
     psi = 0.008*[#   2]+0.008*[#   6]
    |psi|^2 = 0.017

 k =   0.0000000000  0.0641500299  0.0000000000
==== e(   1) =   -22.46624 eV ==== 
     psi = 0.476*[#   1]+0.476*[#   5]+0.008*[#   3]+0.008*[#   4]+0.008*[#   7]
          +0.008*[#   8]
    |psi|^2 = 0.982
==== e(   2) =   -10.36921 eV ==== 
     psi = 0.470*[#   2]+0.470*[#   6]
    |psi|^2 = 0.939
==== e(   3) =    -5.02682 eV ==== 
     psi = 0.246*[#   3]+0.246*[#   4]+0.246*[#   7]+0.246*[#   8]+0.006*[#   1]
          +0.006*[#   5]
    |psi|^2 = 0.997
==== e(   4) =    -4.89368 eV ==== 
     psi = 0.249*[#   3]+0.249*[#   4]+0.249*[#   7]+0.249*[#   8]
    |psi|^2 = 0.997
==== e(   5) =     1.05218 eV ==== 
     psi = 0.003*[#   3]+0.003*[#   4]+0.003*[#   7]+0.003*[#   8]+0.002*[#   1]
          +0.002*[#   5]
    |psi|^2 = 0.016
==== e(   6) =     1.74240 eV ==== 
     psi = 0.009*[#   2]+0.009*[#   6]
    |psi|^2 = 0.019
==== e(   7) =     1.86992 eV ==== 

    |psi|^2 = 0.002
==== e(   8) =     2.87658 eV ==== 
     psi = 0.008*[#   2]+0.008*[#   6]
    |psi|^2 = 0.016

 k =   0.0000000000  0.0962250449  0.0000000000
==== e(   1) =   -22.36687 eV ==== 
     psi = 0.459*[#   1]+0.459*[#   5]+0.016*[#   3]+0.016*[#   4]+0.016*[#   7]
          +0.016*[#   8]
    |psi|^2 = 0.981
==== e(   2) =   -10.24613 eV ==== 
     psi = 0.471*[#   2]+0.471*[#   6]
    |psi|^2 = 0.942
==== e(   3) =    -5.40459 eV ==== 
     psi = 0.242*[#   3]+0.242*[#   4]+0.242*[#   7]+0.242*[#   8]+0.014*[#   1]
          +0.014*[#   5]
    |psi|^2 = 0.997
==== e(   4) =    -5.10749 eV ==== 
     psi = 0.249*[#   3]+0.249*[#   4]+0.249*[#   7]+0.249*[#   8]
    |psi|^2 = 0.997
==== e(   5) =     1.18937 eV ==== 
     psi = 0.005*[#   3]+0.005*[#   4]+0.005*[#   7]+0.005*[#   8]+0.001*[#   1]
          +0.001*[#   5]
    |psi|^2 = 0.024
==== e(   6) =     1.88208 eV ==== 
     psi = 0.009*[#   2]+0.009*[#   6]
    |psi|^2 = 0.018
==== e(   7) =     2.01023 eV ==== 

    |psi|^2 = 0.003
==== e(   8) =     3.01590 eV ==== 
     psi = 0.008*[#   2]+0.008*[#   6]
    |psi|^2 = 0.015

 k =   0.0000000000  0.1283000598  0.0000000000
==== e(   1) =   -22.22790 eV ==== 
     psi = 0.438*[#   1]+0.438*[#   5]+0.026*[#   3]+0.026*[#   4]+0.026*[#   7]
          +0.026*[#   8]
    |psi|^2 = 0.981
==== e(   2) =   -10.07426 eV ==== 
     psi = 0.473*[#   2]+0.473*[#   6]
    |psi|^2 = 0.946
==== e(   3) =    -5.90254 eV ==== 
     psi = 0.237*[#   3]+0.237*[#   4]+0.237*[#   7]+0.237*[#   8]+0.024*[#   1]
          +0.024*[#   5]
    |psi|^2 = 0.996
==== e(   4) =    -5.38049 eV ==== 
     psi = 0.249*[#   3]+0.249*[#   4]+0.249*[#   7]+0.249*[#   8]
    |psi|^2 = 0.997
==== e(   5) =     1.38151 eV ==== 
     psi = 0.008*[#   3]+0.008*[#   4]+0.008*[#   7]+0.008*[#   8]
    |psi|^2 = 0.033
==== e(   6) =     2.07758 eV ==== 
     psi = 0.008*[#   2]+0.008*[#   6]
    |psi|^2 = 0.017
==== e(   7) =     2.20669 eV ==== 

    |psi|^2 = 0.004
==== e(   8) =     3.21086 eV ==== 
     psi = 0.007*[#   2]+0.007*[#   6]
    |psi|^2 = 0.014

 k =   0.0000000000  0.1603750748  0.0000000000
==== e(   1) =   -22.04948 eV ==== 
     psi = 0.416*[#   1]+0.416*[#   5]+0.037*[#   3]+0.037*[#   4]+0.037*[#   7]
          +0.037*[#   8]
    |psi|^2 = 0.981
==== e(   2) =    -9.85408 eV ==== 
     psi = 0.476*[#   2]+0.476*[#   6]
    |psi|^2 = 0.951
==== e(   3) =    -6.49766 eV ==== 
     psi = 0.231*[#   3]+0.231*[#   4]+0.231*[#   7]+0.231*[#   8]+0.036*[#   1]
          +0.036*[#   5]
    |psi|^2 = 0.995
==== e(   4) =    -5.69396 eV ==== 
     psi = 0.249*[#   3]+0.249*[#   4]+0.249*[#   7]+0.249*[#   8]
    |psi|^2 = 0.997
==== e(   5) =     1.62860 eV ==== 
     psi = 0.010*[#   3]+0.010*[#   4]+0.010*[#   7]+0.010*[#   8]
    |psi|^2 = 0.040
==== e(   6) =     2.32880 eV ==== 
     psi = 0.008*[#   2]+0.008*[#   6]
    |psi|^2 = 0.015
==== e(   7) =     2.45930 eV ==== 
     psi = 0.001*[#   3]+0.001*[#   4]+0.001*[#   7]+0.001*[#   8]
    |psi|^2 = 0.004
==== e(   8) =     3.46136 eV ==== 
     psi = 0.006*[#   2]+0.006*[#   6]
    |psi|^2 = 0.013

 k =   0.0000000000  0.1924500897  0.0000000000
==== e(   1) =   -21.83180 eV ==== 
     psi = 0.393*[#   1]+0.393*[#   5]+0.048*[#   3]+0.048*[#   4]+0.048*[#   7]
          +0.048*[#   8]
    |psi|^2 = 0.980
==== e(   2) =    -9.58624 eV ==== 
     psi = 0.479*[#   2]+0.479*[#   6]
    |psi|^2 = 0.957
==== e(   3) =    -7.16770 eV ==== 
     psi = 0.224*[#   3]+0.224*[#   4]+0.224*[#   7]+0.224*[#   8]+0.048*[#   1]
          +0.048*[#   5]
    |psi|^2 = 0.994
==== e(   4) =    -6.03059 eV ==== 
     psi = 0.249*[#   3]+0.249*[#   4]+0.249*[#   7]+0.249*[#   8]
    |psi|^2 = 0.997
==== e(   5) =     1.93059 eV ==== 
     psi = 0.011*[#   3]+0.011*[#   4]+0.011*[#   7]+0.011*[#   8]
    |psi|^2 = 0.045
==== e(   6) =     2.63561 eV ==== 
     psi = 0.007*[#   2]+0.007*[#   6]
    |psi|^2 = 0.013
==== e(   7) =     2.76807 eV ==== 
     psi = 0.001*[#   3]+0.001*[#   4]+0.001*[#   7]+0.001*[#   8]
    |psi|^2 = 0.004
==== e(   8) =     3.76720 eV ==== 
     psi = 0.006*[#   2]+0.006*[#   6]
    |psi|^2 = 0.011

 k =   0.0000000000  0.2245251047  0.0000000000
==== e(   1) =   -21.57512 eV ==== 
     psi = 0.371*[#   1]+0.371*[#   5]+0.059*[#   3]+0.059*[#   4]+0.059*[#   7]
          +0.059*[#   8]
    |psi|^2 = 0.979
==== e(   2) =    -9.27166 eV ==== 
     psi = 0.482*[#   2]+0.482*[#   6]
    |psi|^2 = 0.963
==== e(   3) =    -7.89278 eV ==== 
     psi = 0.218*[#   3]+0.218*[#   4]+0.218*[#   7]+0.218*[#   8]+0.061*[#   1]
          +0.061*[#   5]
    |psi|^2 = 0.993
==== e(   4) =    -6.37559 eV ==== 
     psi = 0.249*[#   3]+0.249*[#   4]+0.249*[#   7]+0.249*[#   8]
    |psi|^2 = 0.997
==== e(   5) =     2.28737 eV ==== 
     psi = 0.011*[#   3]+0.011*[#   4]+0.011*[#   7]+0.011*[#   8]
    |psi|^2 = 0.046
==== e(   6) =     2.99775 eV ==== 
     psi = 0.006*[#   2]+0.006*[#   6]
    |psi|^2 = 0.012
==== e(   7) =     3.13299 eV ==== 
     psi = 0.001*[#   3]+0.001*[#   4]+0.001*[#   7]+0.001*[#   8]
    |psi|^2 = 0.004
==== e(   8) =     4.12799 eV ==== 
     psi = 0.005*[#   2]+0.005*[#   6]
    |psi|^2 = 0.010

 k =   0.0000000000  0.2566001196  0.0000000000
==== e(   1) =   -21.27975 eV ==== 
     psi = 0.350*[#   1]+0.350*[#   5]+0.070*[#   3]+0.070*[#   4]+0.070*[#   7]
          +0.070*[#   8]
    |psi|^2 = 0.979
==== e(   2) =    -8.91158 eV ==== 
     psi = 0.485*[#   2]+0.485*[#   6]
    |psi|^2 = 0.970
==== e(   3) =    -8.65599 eV ==== 
     psi = 0.211*[#   3]+0.211*[#   4]+0.211*[#   7]+0.211*[#   8]+0.074*[#   1]
          +0.074*[#   5]
    |psi|^2 = 0.992
==== e(   4) =    -6.71695 eV ==== 
     psi = 0.249*[#   3]+0.249*[#   4]+0.249*[#   7]+0.249*[#   8]
    |psi|^2 = 0.997
==== e(   5) =     2.69879 eV ==== 
     psi = 0.011*[#   3]+0.011*[#   4]+0.011*[#   7]+0.011*[#   8]
    |psi|^2 = 0.044
==== e(   6) =     3.41467 eV ==== 
     psi = 0.005*[#   2]+0.005*[#   6]
    |psi|^2 = 0.010
==== e(   7) =     3.55405 eV ==== 

    |psi|^2 = 0.004
==== e(   8) =     4.54271 eV ==== 
     psi = 0.004*[#   2]+0.004*[#   6]
    |psi|^2 = 0.009

 k =   0.0000000000  0.2886751346  0.0000000000
==== e(   1) =   -20.94605 eV ==== 
     psi = 0.331*[#   1]+0.331*[#   5]+0.079*[#   3]+0.079*[#   4]+0.079*[#   7]
          +0.079*[#   8]
    |psi|^2 = 0.979
==== e(   2) =    -9.44330 eV ==== 
     psi = 0.205*[#   3]+0.205*[#   4]+0.205*[#   7]+0.205*[#   8]+0.087*[#   1]
          +0.087*[#   5]
    |psi|^2 = 0.992
==== e(   3) =    -8.50767 eV ==== 
     psi = 0.488*[#   2]+0.488*[#   6]
    |psi|^2 = 0.976
==== e(   4) =    -7.04518 eV ==== 
     psi = 0.249*[#   3]+0.249*[#   4]+0.249*[#   7]+0.249*[#   8]
    |psi|^2 = 0.997
==== e(   5) =     3.16465 eV ==== 
     psi = 0.010*[#   3]+0.010*[#   4]+0.010*[#   7]+0.010*[#   8]
    |psi|^2 = 0.039
==== e(   6) =     3.88475 eV ==== 
     psi = 0.005*[#   2]+0.005*[#   6]
    |psi|^2 = 0.010
==== e(   7) =     4.03122 eV ==== 

    |psi|^2 = 0.003
==== e(   8) =     5.00693 eV ==== 
     psi = 0.006*[#   2]+0.006*[#   6]
    |psi|^2 = 0.013

 k =   0.0000000000  0.3207501495  0.0000000000
==== e(   1) =   -20.57447 eV ==== 
     psi = 0.313*[#   1]+0.313*[#   5]+0.088*[#   3]+0.088*[#   4]+0.088*[#   7]
          +0.088*[#   8]
    |psi|^2 = 0.979
==== e(   2) =   -10.24326 eV ==== 
     psi = 0.198*[#   3]+0.198*[#   4]+0.198*[#   7]+0.198*[#   8]+0.099*[#   1]
          +0.099*[#   5]
    |psi|^2 = 0.991
==== e(   3) =    -8.06229 eV ==== 
     psi = 0.491*[#   2]+0.491*[#   6]
    |psi|^2 = 0.981
==== e(   4) =    -7.35290 eV ==== 
     psi = 0.249*[#   3]+0.249*[#   4]+0.249*[#   7]+0.249*[#   8]
    |psi|^2 = 0.997
==== e(   5) =     3.68464 eV ==== 
     psi = 0.008*[#   3]+0.008*[#   4]+0.008*[#   7]+0.008*[#   8]
    |psi|^2 = 0.033
==== e(   6) =     4.39905 eV ==== 
     psi = 0.010*[#   2]+0.010*[#   6]
    |psi|^2 = 0.021
==== e(   7) =     4.56447 eV ==== 

    |psi|^2 = 0.003
==== e(   8) =     5.43046 eV ==== 
     psi = 0.144*[#   2]+0.144*[#   6]
    |psi|^2 = 0.287

 k =   0.0000000000  0.3528251645  0.0000000000
==== e(   1) =   -20.16554 eV ==== 
     psi = 0.297*[#   1]+0.297*[#   5]+0.096*[#   3]+0.096*[#   4]+0.096*[#   7]
          +0.096*[#   8]
    |psi|^2 = 0.979
==== e(   2) =   -11.04654 eV ==== 
     psi = 0.192*[#   3]+0.192*[#   4]+0.192*[#   7]+0.192*[#   8]+0.111*[#   1]
          +0.111*[#   5]
    |psi|^2 = 0.991
==== e(   3) =    -7.63442 eV ==== 
     psi = 0.249*[#   3]+0.249*[#   4]+0.249*[#   7]+0.249*[#   8]
    |psi|^2 = 0.997
==== e(   4) =    -7.57881 eV ==== 
     psi = 0.493*[#   2]+0.493*[#   6]
    |psi|^2 = 0.986
==== e(   5) =     4.25833 eV ==== 
     psi = 0.006*[#   3]+0.006*[#   4]+0.006*[#   7]+0.006*[#   8]
    |psi|^2 = 0.026
==== e(   6) =     4.61701 eV ==== 
     psi = 0.363*[#   2]+0.363*[#   6]
    |psi|^2 = 0.726
==== e(   7) =     5.10252 eV ==== 
     psi = 0.093*[#   2]+0.093*[#   6]
    |psi|^2 = 0.187
==== e(   8) =     5.15371 eV ==== 

    |psi|^2 = 0.002

 k =   0.0000000000  0.3849001795  0.0000000000
==== e(   1) =   -19.71991 eV ==== 
     psi = 0.282*[#   1]+0.282*[#   5]+0.104*[#   3]+0.104*[#   4]+0.104*[#   7]
          +0.104*[#   8]
    |psi|^2 = 0.979
==== e(   2) =   -11.84551 eV ==== 
     psi = 0.187*[#   3]+0.187*[#   4]+0.187*[#   7]+0.187*[#   8]+0.122*[#   1]
          +0.122*[#   5]
    |psi|^2 = 0.990
==== e(   3) =    -7.88536 eV ==== 
     psi = 0.249*[#   3]+0.249*[#   4]+0.249*[#   7]+0.249*[#   8]
    |psi|^2 = 0.997
==== e(   4) =    -7.06229 eV ==== 
     psi = 0.495*[#   2]+0.495*[#   6]
    |psi|^2 = 0.990
==== e(   5) =     3.78551 eV ==== 
     psi = 0.455*[#   2]+0.455*[#   6]
    |psi|^2 = 0.910
==== e(   6) =     4.88499 eV ==== 
     psi = 0.004*[#   3]+0.004*[#   4]+0.004*[#   7]+0.004*[#   8]
    |psi|^2 = 0.019
==== e(   7) =     5.67333 eV ==== 
     psi = 0.009*[#   2]+0.009*[#   6]
    |psi|^2 = 0.018
==== e(   8) =     5.79872 eV ==== 

    |psi|^2 = 0.001

 k =   0.0000000000  0.4169751944  0.0000000000
==== e(   1) =   -19.23842 eV ==== 
     psi = 0.269*[#   1]+0.269*[#   5]+0.111*[#   3]+0.111*[#   4]+0.111*[#   7]
          +0.111*[#   8]
    |psi|^2 = 0.980
==== e(   2) =   -12.63391 eV ==== 
     psi = 0.181*[#   3]+0.181*[#   4]+0.181*[#   7]+0.181*[#   8]+0.132*[#   1]
          +0.132*[#   5]
    |psi|^2 = 0.990
==== e(   3) =    -8.10238 eV ==== 
     psi = 0.249*[#   3]+0.249*[#   4]+0.249*[#   7]+0.249*[#   8]
    |psi|^2 = 0.996
==== e(   4) =    -6.52060 eV ==== 
     psi = 0.496*[#   2]+0.496*[#   6]
    |psi|^2 = 0.993
==== e(   5) =     2.90666 eV ==== 
     psi = 0.462*[#   2]+0.462*[#   6]
    |psi|^2 = 0.924
==== e(   6) =     5.56308 eV ==== 
     psi = 0.003*[#   3]+0.003*[#   4]+0.003*[#   7]+0.003*[#   8]+0.002*[#   1]
          +0.002*[#   5]
    |psi|^2 = 0.014
==== e(   7) =     6.35975 eV ==== 
     psi = 0.004*[#   2]+0.004*[#   6]
    |psi|^2 = 0.008
==== e(   8) =     6.49858 eV ==== 
     psi = 0.001*[#   1]+0.001*[#   5]
    |psi|^2 = 0.003

 k =   0.0000000000  0.4490502094  0.0000000000
==== e(   1) =   -18.72217 eV ==== 
     psi = 0.257*[#   1]+0.257*[#   5]+0.117*[#   3]+0.117*[#   4]+0.117*[#   7]
          +0.117*[#   8]
    |psi|^2 = 0.981
==== e(   2) =   -13.40639 eV ==== 
     psi = 0.177*[#   3]+0.177*[#   4]+0.177*[#   7]+0.177*[#   8]+0.141*[#   1]
          +0.141*[#   5]
    |psi|^2 = 0.989
==== e(   3) =    -8.28293 eV ==== 
     psi = 0.249*[#   3]+0.249*[#   4]+0.249*[#   7]+0.249*[#   8]
    |psi|^2 = 0.996
==== e(   4) =    -5.96681 eV ==== 
     psi = 0.497*[#   2]+0.497*[#   6]
    |psi|^2 = 0.995
==== e(   5) =     2.06262 eV ==== 
     psi = 0.465*[#   2]+0.465*[#   6]
    |psi|^2 = 0.930
==== e(   6) =     6.28757 eV ==== 
     psi = 0.007*[#   1]+0.007*[#   5]
    |psi|^2 = 0.017
==== e(   7) =     7.10572 eV ==== 
     psi = 0.003*[#   2]+0.003*[#   6]
    |psi|^2 = 0.005
==== e(   8) =     7.23167 eV ==== 
     psi = 0.056*[#   1]+0.056*[#   5]+0.008*[#   3]+0.008*[#   4]+0.008*[#   7]
          +0.008*[#   8]
    |psi|^2 = 0.145

 k =   0.0000000000  0.4811252243  0.0000000000
==== e(   1) =   -18.17286 eV ==== 
     psi = 0.247*[#   1]+0.247*[#   5]+0.122*[#   3]+0.122*[#   4]+0.122*[#   7]
          +0.122*[#   8]
    |psi|^2 = 0.983
==== e(   2) =   -14.15803 eV ==== 
     psi = 0.172*[#   3]+0.172*[#   4]+0.172*[#   7]+0.172*[#   8]+0.149*[#   1]
          +0.149*[#   5]
    |psi|^2 = 0.988
==== e(   3) =    -8.42512 eV ==== 
     psi = 0.249*[#   3]+0.249*[#   4]+0.249*[#   7]+0.249*[#   8]
    |psi|^2 = 0.996
==== e(   4) =    -5.42386 eV ==== 
     psi = 0.498*[#   2]+0.498*[#   6]
    |psi|^2 = 0.996
==== e(   5) =     1.28702 eV ==== 
     psi = 0.467*[#   2]+0.467*[#   6]
    |psi|^2 = 0.934
==== e(   6) =     7.00886 eV ==== 
     psi = 0.083*[#   1]+0.083*[#   5]+0.005*[#   3]+0.005*[#   4]+0.005*[#   7]
          +0.005*[#   8]
    |psi|^2 = 0.185
==== e(   7) =     7.38220 eV ==== 
     psi = 0.244*[#   1]+0.244*[#   5]+0.049*[#   3]+0.049*[#   4]+0.049*[#   7]
          +0.049*[#   8]
    |psi|^2 = 0.684
==== e(   8) =     7.90666 eV ==== 
     psi = 0.002*[#   2]+0.002*[#   6]
    |psi|^2 = 0.004

 k =   0.0000000000  0.5132002393  0.0000000000
==== e(   1) =   -17.59401 eV ==== 
     psi = 0.241*[#   1]+0.241*[#   5]+0.126*[#   3]+0.126*[#   4]+0.126*[#   7]
          +0.126*[#   8]
    |psi|^2 = 0.985
==== e(   2) =   -14.88300 eV ==== 
     psi = 0.169*[#   3]+0.169*[#   4]+0.169*[#   7]+0.169*[#   8]+0.154*[#   1]
          +0.154*[#   5]
    |psi|^2 = 0.986
==== e(   3) =    -8.52760 eV ==== 
     psi = 0.249*[#   3]+0.249*[#   4]+0.249*[#   7]+0.249*[#   8]
    |psi|^2 = 0.996
==== e(   4) =    -4.93356 eV ==== 
     psi = 0.498*[#   2]+0.498*[#   6]
    |psi|^2 = 0.997
==== e(   5) =     0.62719 eV ==== 
     psi = 0.468*[#   2]+0.468*[#   6]
    |psi|^2 = 0.936
==== e(   6) =     7.22543 eV ==== 
     psi = 0.326*[#   1]+0.326*[#   5]+0.042*[#   3]+0.042*[#   4]+0.042*[#   7]
          +0.042*[#   8]
    |psi|^2 = 0.820
==== e(   7) =     7.97206 eV ==== 
     psi = 0.013*[#   1]+0.013*[#   5]+0.007*[#   3]+0.007*[#   4]+0.007*[#   7]
          +0.007*[#   8]
    |psi|^2 = 0.055
==== e(   8) =     8.76046 eV ==== 
     psi = 0.002*[#   2]+0.002*[#   6]
    |psi|^2 = 0.004

 k =   0.0000000000  0.5452752542  0.0000000000
==== e(   1) =   -16.99843 eV ==== 
     psi = 0.247*[#   1]+0.247*[#   5]+0.123*[#   3]+0.123*[#   4]+0.123*[#   7]
          +0.123*[#   8]
    |psi|^2 = 0.987
==== e(   2) =   -15.56687 eV ==== 
     psi = 0.172*[#   3]+0.172*[#   4]+0.172*[#   7]+0.172*[#   8]+0.148*[#   1]
          +0.148*[#   5]
    |psi|^2 = 0.984
==== e(   3) =    -8.58944 eV ==== 
     psi = 0.249*[#   3]+0.249*[#   4]+0.249*[#   7]+0.249*[#   8]
    |psi|^2 = 0.996
==== e(   4) =    -4.56920 eV ==== 
     psi = 0.499*[#   2]+0.499*[#   6]
    |psi|^2 = 0.997
==== e(   5) =     0.15986 eV ==== 
     psi = 0.469*[#   2]+0.469*[#   6]
    |psi|^2 = 0.938
==== e(   6) =     7.22396 eV ==== 
     psi = 0.343*[#   1]+0.343*[#   5]+0.044*[#   3]+0.044*[#   4]+0.044*[#   7]
          +0.044*[#   8]
    |psi|^2 = 0.861
==== e(   7) =     8.83781 eV ==== 
     psi = 0.003*[#   3]+0.003*[#   4]+0.003*[#   7]+0.003*[#   8]+0.002*[#   1]
          +0.002*[#   5]
    |psi|^2 = 0.015
==== e(   8) =     9.66454 eV ==== 
     psi = 0.002*[#   2]+0.002*[#   6]
    |psi|^2 = 0.004

 k =   0.0000000000 -0.5773502692  0.0000000000
==== e(   1) =   -16.56022 eV ==== 
     psi = 0.303*[#   1]+0.303*[#   5]+0.097*[#   3]+0.097*[#   4]+0.097*[#   7]
          +0.097*[#   8]
    |psi|^2 = 0.993
==== e(   2) =   -16.03461 eV ==== 
     psi = 0.198*[#   3]+0.198*[#   4]+0.198*[#   7]+0.198*[#   8]+0.092*[#   1]
          +0.092*[#   5]
    |psi|^2 = 0.978
==== e(   3) =    -8.61011 eV ==== 
     psi = 0.249*[#   3]+0.249*[#   4]+0.249*[#   7]+0.249*[#   8]
    |psi|^2 = 0.996
==== e(   4) =    -4.42970 eV ==== 
     psi = 0.499*[#   2]+0.499*[#   6]
    |psi|^2 = 0.998
==== e(   5) =    -0.01418 eV ==== 
     psi = 0.469*[#   2]+0.469*[#   6]
    |psi|^2 = 0.938
==== e(   6) =     7.22027 eV ==== 
     psi = 0.346*[#   1]+0.346*[#   5]+0.043*[#   3]+0.043*[#   4]+0.043*[#   7]
          +0.043*[#   8]
    |psi|^2 = 0.866
==== e(   7) =     9.70108 eV ==== 
     psi = 0.004*[#   1]+0.004*[#   5]
    |psi|^2 = 0.008
==== e(   8) =     9.83376 eV ==== 
     psi = 0.003*[#   3]+0.003*[#   4]+0.003*[#   7]+0.003*[#   8]
    |psi|^2 = 0.011

 k =   0.0277777778  0.0481125224  0.0000000000
==== e(   1) =   -22.48613 eV ==== 
     psi = 0.480*[#   1]+0.480*[#   5]+0.006*[#   3]+0.006*[#   4]+0.006*[#   7]
          +0.006*[#   8]
    |psi|^2 = 0.982
==== e(   2) =   -10.39386 eV ==== 
     psi = 0.469*[#   2]+0.469*[#   6]
    |psi|^2 = 0.938
==== e(   3) =    -4.94647 eV ==== 
     psi = 0.247*[#   3]+0.247*[#   4]+0.247*[#   7]+0.247*[#   8]+0.005*[#   1]
          +0.005*[#   5]
    |psi|^2 = 0.997
==== e(   4) =    -4.85117 eV ==== 
     psi = 0.249*[#   3]+0.249*[#   4]+0.249*[#   7]+0.249*[#   8]
    |psi|^2 = 0.997
==== e(   5) =     1.02475 eV ==== 
     psi = 0.003*[#   1]+0.003*[#   5]+0.002*[#   3]+0.002*[#   4]+0.002*[#   7]
          +0.002*[#   8]
    |psi|^2 = 0.014
==== e(   6) =     1.71445 eV ==== 
     psi = 0.009*[#   2]+0.009*[#   6]
    |psi|^2 = 0.019
==== e(   7) =     1.84186 eV ==== 

    |psi|^2 = 0.002
==== e(   8) =     2.84871 eV ==== 
     psi = 0.008*[#   2]+0.008*[#   6]
    |psi|^2 = 0.016

 k =   0.0277777778  0.0801875374  0.0000000000
==== e(   1) =   -22.40661 eV ==== 
     psi = 0.465*[#   1]+0.465*[#   5]+0.013*[#   3]+0.013*[#   4]+0.013*[#   7]
          +0.013*[#   8]
    |psi|^2 = 0.982
==== e(   2) =   -10.29533 eV ==== 
     psi = 0.470*[#   2]+0.470*[#   6]
    |psi|^2 = 0.941
==== e(   3) =    -5.24775 eV ==== 
     psi = 0.244*[#   3]+0.244*[#   4]+0.244*[#   7]+0.244*[#   8]+0.010*[#   1]
          +0.010*[#   5]
    |psi|^2 = 0.997
==== e(   4) =    -5.03254 eV ==== 
     psi = 0.249*[#   3]+0.249*[#   4]+0.249*[#   7]+0.249*[#   8]
    |psi|^2 = 0.997
==== e(   5) =     1.13449 eV ==== 
     psi = 0.005*[#   3]+0.005*[#   4]+0.005*[#   7]+0.005*[#   8]+0.002*[#   1]
          +0.002*[#   5]
    |psi|^2 = 0.021
==== e(   6) =     1.82621 eV ==== 
     psi = 0.009*[#   2]+0.009*[#   6]
    |psi|^2 = 0.018
==== e(   7) =     1.95410 eV ==== 

    |psi|^2 = 0.002
==== e(   8) =     2.96018 eV ==== 
     psi = 0.008*[#   2]+0.008*[#   6]
    |psi|^2 = 0.016

 k =   0.0277777778  0.1122625523  0.0000000000
==== e(   1) =   -22.28744 eV ==== 
     psi = 0.447*[#   1]+0.447*[#   5]+0.022*[#   3]+0.022*[#   4]+0.022*[#   7]
          +0.022*[#   8]
    |psi|^2 = 0.981
==== e(   2) =   -10.14785 eV ==== 
     psi = 0.472*[#   2]+0.472*[#   6]
    |psi|^2 = 0.945
==== e(   3) =    -5.67832 eV ==== 
     psi = 0.240*[#   3]+0.240*[#   4]+0.240*[#   7]+0.240*[#   8]+0.019*[#   1]
          +0.019*[#   5]
    |psi|^2 = 0.997
==== e(   4) =    -5.28326 eV ==== 
     psi = 0.249*[#   3]+0.249*[#   4]+0.249*[#   7]+0.249*[#   8]
    |psi|^2 = 0.997
==== e(   5) =     1.29918 eV ==== 
     psi = 0.007*[#   3]+0.007*[#   4]+0.007*[#   7]+0.007*[#   8]
    |psi|^2 = 0.030
==== e(   6) =     1.99380 eV ==== 
     psi = 0.009*[#   2]+0.009*[#   6]
    |psi|^2 = 0.017
==== e(   7) =     2.12249 eV ==== 

    |psi|^2 = 0.003
==== e(   8) =     3.12732 eV ==== 
     psi = 0.007*[#   2]+0.007*[#   6]
    |psi|^2 = 0.015

 k =   0.0277777778  0.1443375673  0.0000000000
==== e(   1) =   -22.12874 eV ==== 
     psi = 0.425*[#   1]+0.425*[#   5]+0.032*[#   3]+0.032*[#   4]+0.032*[#   7]
          +0.032*[#   8]
    |psi|^2 = 0.981
==== e(   2) =    -9.95182 eV ==== 
     psi = 0.475*[#   2]+0.475*[#   6]
    |psi|^2 = 0.949
==== e(   3) =    -6.21773 eV ==== 
     psi = 0.234*[#   3]+0.234*[#   4]+0.234*[#   7]+0.234*[#   8]+0.030*[#   1]
          +0.030*[#   5]
    |psi|^2 = 0.996
==== e(   4) =    -5.58365 eV ==== 
     psi = 0.249*[#   3]+0.249*[#   4]+0.249*[#   7]+0.249*[#   8]+0.001*[#   1]
          +0.001*[#   5]
    |psi|^2 = 0.997
==== e(   5) =     1.51882 eV ==== 
     psi = 0.009*[#   3]+0.009*[#   4]+0.009*[#   7]+0.009*[#   8]
    |psi|^2 = 0.038
==== e(   6) =     2.21717 eV ==== 
     psi = 0.008*[#   2]+0.008*[#   6]
    |psi|^2 = 0.016
==== e(   7) =     2.34703 eV ==== 

    |psi|^2 = 0.004
==== e(   8) =     3.35006 eV ==== 
     psi = 0.007*[#   2]+0.007*[#   6]
    |psi|^2 = 0.013

 k =   0.0277777778  0.1764125823  0.0000000000
==== e(   1) =   -21.93069 eV ==== 
     psi = 0.403*[#   1]+0.403*[#   5]+0.044*[#   3]+0.044*[#   4]+0.044*[#   7]
          +0.044*[#   8]
    |psi|^2 = 0.980
==== e(   2) =    -9.70778 eV ==== 
     psi = 0.477*[#   2]+0.477*[#   6]
    |psi|^2 = 0.955
==== e(   3) =    -6.84408 eV ==== 
     psi = 0.228*[#   3]+0.228*[#   4]+0.228*[#   7]+0.228*[#   8]+0.042*[#   1]
          +0.042*[#   5]
    |psi|^2 = 0.995
==== e(   4) =    -5.91491 eV ==== 
     psi = 0.248*[#   3]+0.248*[#   4]+0.248*[#   7]+0.248*[#   8]+0.002*[#   1]
          +0.002*[#   5]
    |psi|^2 = 0.997
==== e(   5) =     1.79340 eV ==== 
     psi = 0.011*[#   3]+0.011*[#   4]+0.011*[#   7]+0.011*[#   8]
    |psi|^2 = 0.043
==== e(   6) =     2.49620 eV ==== 
     psi = 0.007*[#   2]+0.007*[#   6]
    |psi|^2 = 0.014
==== e(   7) =     2.62773 eV ==== 
     psi = 0.001*[#   3]+0.001*[#   4]+0.001*[#   7]+0.001*[#   8]
    |psi|^2 = 0.004
==== e(   8) =     3.62825 eV ==== 
     psi = 0.006*[#   2]+0.006*[#   6]
    |psi|^2 = 0.012

 k =   0.0277777778  0.2084875972  0.0000000000
==== e(   1) =   -21.69352 eV ==== 
     psi = 0.381*[#   1]+0.381*[#   5]+0.055*[#   3]+0.055*[#   4]+0.055*[#   7]
          +0.055*[#   8]
    |psi|^2 = 0.980
==== e(   2) =    -9.41653 eV ==== 
     psi = 0.480*[#   2]+0.480*[#   6]
    |psi|^2 = 0.961
==== e(   3) =    -7.53657 eV ==== 
     psi = 0.221*[#   3]+0.221*[#   4]+0.221*[#   7]+0.221*[#   8]+0.054*[#   1]
          +0.054*[#   5]
    |psi|^2 = 0.994
==== e(   4) =    -6.26073 eV ==== 
     psi = 0.248*[#   3]+0.248*[#   4]+0.248*[#   7]+0.248*[#   8]+0.002*[#   1]
          +0.002*[#   5]
    |psi|^2 = 0.997
==== e(   5) =     2.12283 eV ==== 
     psi = 0.011*[#   3]+0.011*[#   4]+0.011*[#   7]+0.011*[#   8]
    |psi|^2 = 0.046
==== e(   6) =     2.83071 eV ==== 
     psi = 0.006*[#   2]+0.006*[#   6]
    |psi|^2 = 0.012
==== e(   7) =     2.96458 eV ==== 
     psi = 0.001*[#   3]+0.001*[#   4]+0.001*[#   7]+0.001*[#   8]
    |psi|^2 = 0.004
==== e(   8) =     3.96164 eV ==== 
     psi = 0.005*[#   2]+0.005*[#   6]
    |psi|^2 = 0.010

 k =   0.0277777778  0.2405626122  0.0000000000
==== e(   1) =   -21.41750 eV ==== 
     psi = 0.359*[#   1]+0.359*[#   5]+0.065*[#   3]+0.065*[#   4]+0.065*[#   7]
          +0.065*[#   8]
    |psi|^2 = 0.979
==== e(   2) =    -9.07913 eV ==== 
     psi = 0.483*[#   2]+0.483*[#   6]
    |psi|^2 = 0.967
==== e(   3) =    -8.27675 eV ==== 
     psi = 0.215*[#   3]+0.215*[#   4]+0.215*[#   7]+0.215*[#   8]+0.067*[#   1]
          +0.067*[#   5]
    |psi|^2 = 0.993
==== e(   4) =    -6.60774 eV ==== 
     psi = 0.248*[#   3]+0.248*[#   4]+0.248*[#   7]+0.248*[#   8]+0.002*[#   1]
          +0.002*[#   5]
    |psi|^2 = 0.997
==== e(   5) =     2.50699 eV ==== 
     psi = 0.011*[#   3]+0.011*[#   4]+0.011*[#   7]+0.011*[#   8]
    |psi|^2 = 0.045
==== e(   6) =     3.22034 eV ==== 
     psi = 0.005*[#   2]+0.005*[#   6]
    |psi|^2 = 0.011
==== e(   7) =     3.35758 eV ==== 
     psi = 0.001*[#   3]+0.001*[#   4]+0.001*[#   7]+0.001*[#   8]
    |psi|^2 = 0.004
==== e(   8) =     4.34961 eV ==== 
     psi = 0.005*[#   2]+0.005*[#   6]
    |psi|^2 = 0.009

 k =   0.0277777778  0.2726376271  0.0000000000
==== e(   1) =   -21.10297 eV ==== 
     psi = 0.339*[#   1]+0.339*[#   5]+0.075*[#   3]+0.075*[#   4]+0.075*[#   7]
          +0.075*[#   8]
    |psi|^2 = 0.979
==== e(   2) =    -9.04897 eV ==== 
     psi = 0.208*[#   3]+0.208*[#   4]+0.208*[#   7]+0.208*[#   8]+0.080*[#   1]
          +0.080*[#   5]
    |psi|^2 = 0.992
==== e(   3) =    -8.69700 eV ==== 
     psi = 0.486*[#   2]+0.486*[#   6]
    |psi|^2 = 0.973
==== e(   4) =    -6.94538 eV ==== 
     psi = 0.248*[#   3]+0.248*[#   4]+0.248*[#   7]+0.248*[#   8]+0.002*[#   1]
          +0.002*[#   5]
    |psi|^2 = 0.997
==== e(   5) =     2.94570 eV ==== 
     psi = 0.010*[#   3]+0.010*[#   4]+0.010*[#   7]+0.010*[#   8]
    |psi|^2 = 0.042
==== e(   6) =     3.66420 eV ==== 
     psi = 0.005*[#   2]+0.005*[#   6]
    |psi|^2 = 0.009
==== e(   7) =     3.80672 eV ==== 

    |psi|^2 = 0.004
==== e(   8) =     4.79025 eV ==== 
     psi = 0.005*[#   2]+0.005*[#   6]
    |psi|^2 = 0.009

 k =   0.0277777778  0.3047126421  0.0000000000
==== e(   1) =   -20.75034 eV ==== 
     psi = 0.321*[#   1]+0.321*[#   5]+0.084*[#   3]+0.084*[#   4]+0.084*[#   7]
          +0.084*[#   8]
    |psi|^2 = 0.979
==== e(   2) =    -9.84031 eV ==== 
     psi = 0.202*[#   3]+0.202*[#   4]+0.202*[#   7]+0.202*[#   8]+0.093*[#   1]
          +0.093*[#   5]
    |psi|^2 = 0.992
==== e(   3) =    -8.27213 eV ==== 
     psi = 0.489*[#   2]+0.489*[#   6]
    |psi|^2 = 0.979
==== e(   4) =    -7.26542 eV ==== 
     psi = 0.248*[#   3]+0.248*[#   4]+0.248*[#   7]+0.248*[#   8]+0.002*[#   1]
          +0.002*[#   5]
    |psi|^2 = 0.997
==== e(   5) =     3.43870 eV ==== 
     psi = 0.009*[#   3]+0.009*[#   4]+0.009*[#   7]+0.009*[#   8]
    |psi|^2 = 0.036
==== e(   6) =     4.15891 eV ==== 
     psi = 0.006*[#   2]+0.006*[#   6]
    |psi|^2 = 0.011
==== e(   7) =     4.31195 eV ==== 

    |psi|^2 = 0.003
==== e(   8) =     5.26944 eV ==== 
     psi = 0.016*[#   2]+0.016*[#   6]
    |psi|^2 = 0.033

 k =   0.0277777778  0.3367876570  0.0000000000
==== e(   1) =   -20.36010 eV ==== 
     psi = 0.304*[#   1]+0.304*[#   5]+0.093*[#   3]+0.093*[#   4]+0.093*[#   7]
          +0.093*[#   8]
    |psi|^2 = 0.979
==== e(   2) =   -10.64021 eV ==== 
     psi = 0.196*[#   3]+0.196*[#   4]+0.196*[#   7]+0.196*[#   8]+0.104*[#   1]
          +0.104*[#   5]
    |psi|^2 = 0.991
==== e(   3) =    -7.80733 eV ==== 
     psi = 0.492*[#   2]+0.492*[#   6]
    |psi|^2 = 0.984
==== e(   4) =    -7.56150 eV ==== 
     psi = 0.248*[#   3]+0.248*[#   4]+0.248*[#   7]+0.248*[#   8]+0.002*[#   1]
          +0.002*[#   5]
    |psi|^2 = 0.997
==== e(   5) =     3.98566 eV ==== 
     psi = 0.007*[#   3]+0.007*[#   4]+0.007*[#   7]+0.007*[#   8]
    |psi|^2 = 0.030
==== e(   6) =     4.66367 eV ==== 
     psi = 0.054*[#   2]+0.054*[#   6]
    |psi|^2 = 0.107
==== e(   7) =     4.87323 eV ==== 

    |psi|^2 = 0.002
==== e(   8) =     5.20000 eV ==== 
     psi = 0.382*[#   2]+0.382*[#   6]
    |psi|^2 = 0.764

 k =   0.0277777778  0.3688626720  0.0000000000
==== e(   1) =   -19.93284 eV ==== 
     psi = 0.289*[#   1]+0.289*[#   5]+0.100*[#   3]+0.100*[#   4]+0.100*[#   7]
          +0.100*[#   8]
    |psi|^2 = 0.979
==== e(   2) =   -11.44004 eV ==== 
     psi = 0.190*[#   3]+0.190*[#   4]+0.190*[#   7]+0.190*[#   8]+0.116*[#   1]
          +0.116*[#   5]
    |psi|^2 = 0.991
==== e(   3) =    -7.82875 eV ==== 
     psi = 0.248*[#   3]+0.248*[#   4]+0.248*[#   7]+0.248*[#   8]+0.002*[#   1]
          +0.002*[#   5]
    |psi|^2 = 0.997
==== e(   4) =    -7.30667 eV ==== 
     psi = 0.494*[#   2]+0.494*[#   6]
    |psi|^2 = 0.988
==== e(   5) =     4.21462 eV ==== 
     psi = 0.445*[#   2]+0.445*[#   6]
    |psi|^2 = 0.891
==== e(   6) =     4.58603 eV ==== 
     psi = 0.005*[#   3]+0.005*[#   4]+0.005*[#   7]+0.005*[#   8]
    |psi|^2 = 0.022
==== e(   7) =     5.37742 eV ==== 
     psi = 0.018*[#   2]+0.018*[#   6]
    |psi|^2 = 0.035
==== e(   8) =     5.49044 eV ==== 

    |psi|^2 = 0.002

 k =   0.0277777778  0.4009376869  0.0000000000
==== e(   1) =   -19.46929 eV ==== 
     psi = 0.275*[#   1]+0.275*[#   5]+0.108*[#   3]+0.108*[#   4]+0.108*[#   7]
          +0.108*[#   8]
    |psi|^2 = 0.980
==== e(   2) =   -12.23277 eV ==== 
     psi = 0.184*[#   3]+0.184*[#   4]+0.184*[#   7]+0.184*[#   8]+0.126*[#   1]
          +0.126*[#   5]
    |psi|^2 = 0.990
==== e(   3) =    -8.06341 eV ==== 
     psi = 0.248*[#   3]+0.248*[#   4]+0.248*[#   7]+0.248*[#   8]+0.002*[#   1]
          +0.002*[#   5]
    |psi|^2 = 0.996
==== e(   4) =    -6.77641 eV ==== 
     psi = 0.496*[#   2]+0.496*[#   6]
    |psi|^2 = 0.992
==== e(   5) =     3.33637 eV ==== 
     psi = 0.460*[#   2]+0.460*[#   6]
    |psi|^2 = 0.921
==== e(   6) =     5.23887 eV ==== 
     psi = 0.004*[#   3]+0.004*[#   4]+0.004*[#   7]+0.004*[#   8]
    |psi|^2 = 0.016
==== e(   7) =     6.02783 eV ==== 
     psi = 0.005*[#   2]+0.005*[#   6]
    |psi|^2 = 0.011
==== e(   8) =     6.16322 eV ==== 

    |psi|^2 = 0.002

 k =   0.0277777778  0.4330127019  0.0000000000
==== e(   1) =   -18.97041 eV ==== 
     psi = 0.262*[#   1]+0.262*[#   5]+0.114*[#   3]+0.114*[#   4]+0.114*[#   7]
          +0.114*[#   8]
    |psi|^2 = 0.981
==== e(   2) =   -13.01252 eV ==== 
     psi = 0.179*[#   3]+0.179*[#   4]+0.179*[#   7]+0.179*[#   8]+0.136*[#   1]
          +0.136*[#   5]
    |psi|^2 = 0.989
==== e(   3) =    -8.26265 eV ==== 
     psi = 0.248*[#   3]+0.248*[#   4]+0.248*[#   7]+0.248*[#   8]+0.002*[#   1]
          +0.002*[#   5]
    |psi|^2 = 0.996
==== e(   4) =    -6.22660 eV ==== 
     psi = 0.497*[#   2]+0.497*[#   6]
    |psi|^2 = 0.994
==== e(   5) =     2.47299 eV ==== 
     psi = 0.464*[#   2]+0.464*[#   6]
    |psi|^2 = 0.928
==== e(   6) =     5.94186 eV ==== 
     psi = 0.003*[#   1]+0.003*[#   5]+0.002*[#   3]+0.002*[#   4]+0.002*[#   7]
          +0.002*[#   8]
    |psi|^2 = 0.013
==== e(   7) =     6.74509 eV ==== 
     psi = 0.003*[#   2]+0.003*[#   6]
    |psi|^2 = 0.006
==== e(   8) =     6.88933 eV ==== 
     psi = 0.004*[#   1]+0.004*[#   5]
    |psi|^2 = 0.008

 k =   0.0277777778  0.4650877168  0.0000000000
==== e(   1) =   -18.43756 eV ==== 
     psi = 0.251*[#   1]+0.251*[#   5]+0.120*[#   3]+0.120*[#   4]+0.120*[#   7]
          +0.120*[#   8]
    |psi|^2 = 0.982
==== e(   2) =   -13.77417 eV ==== 
     psi = 0.174*[#   3]+0.174*[#   4]+0.174*[#   7]+0.174*[#   8]+0.145*[#   1]
          +0.145*[#   5]
    |psi|^2 = 0.988
==== e(   3) =    -8.42431 eV ==== 
     psi = 0.248*[#   3]+0.248*[#   4]+0.248*[#   7]+0.248*[#   8]+0.002*[#   1]
          +0.002*[#   5]
    |psi|^2 = 0.996
==== e(   4) =    -5.67437 eV ==== 
     psi = 0.498*[#   2]+0.498*[#   6]
    |psi|^2 = 0.995
==== e(   5) =     1.66028 eV ==== 
     psi = 0.466*[#   2]+0.466*[#   6]
    |psi|^2 = 0.933
==== e(   6) =     6.68455 eV ==== 
     psi = 0.016*[#   1]+0.016*[#   5]
    |psi|^2 = 0.033
==== e(   7) =     7.42585 eV ==== 
     psi = 0.288*[#   1]+0.288*[#   5]+0.054*[#   3]+0.054*[#   4]+0.054*[#   7]
          +0.054*[#   8]
    |psi|^2 = 0.791
==== e(   8) =     7.51858 eV ==== 
     psi = 0.002*[#   2]+0.002*[#   6]
    |psi|^2 = 0.005

 k =   0.0277777778  0.4971627318  0.0000000000
==== e(   1) =   -17.87307 eV ==== 
     psi = 0.243*[#   1]+0.243*[#   5]+0.124*[#   3]+0.124*[#   4]+0.124*[#   7]
          +0.124*[#   8]
    |psi|^2 = 0.984
==== e(   2) =   -14.51254 eV ==== 
     psi = 0.171*[#   3]+0.171*[#   4]+0.171*[#   7]+0.171*[#   8]+0.152*[#   1]
          +0.152*[#   5]
    |psi|^2 = 0.987
==== e(   3) =    -8.54683 eV ==== 
     psi = 0.248*[#   3]+0.248*[#   4]+0.248*[#   7]+0.248*[#   8]+0.002*[#   1]
          +0.002*[#   5]
    |psi|^2 = 0.996
==== e(   4) =    -5.15056 eV ==== 
     psi = 0.498*[#   2]+0.498*[#   6]
    |psi|^2 = 0.996
==== e(   5) =     0.93627 eV ==== 
     psi = 0.468*[#   2]+0.468*[#   6]
    |psi|^2 = 0.936
==== e(   6) =     7.26955 eV ==== 
     psi = 0.249*[#   1]+0.249*[#   5]+0.029*[#   3]+0.029*[#   4]+0.029*[#   7]
          +0.029*[#   8]
    |psi|^2 = 0.615
==== e(   7) =     7.62574 eV ==== 
     psi = 0.082*[#   1]+0.082*[#   5]+0.023*[#   3]+0.023*[#   4]+0.023*[#   7]
          +0.023*[#   8]
    |psi|^2 = 0.256
==== e(   8) =     8.34567 eV ==== 
     psi = 0.002*[#   2]+0.002*[#   6]
    |psi|^2 = 0.004

 k =   0.0277777778  0.5292377468  0.0000000000
==== e(   1) =   -17.28305 eV ==== 
     psi = 0.241*[#   1]+0.241*[#   5]+0.126*[#   3]+0.126*[#   4]+0.126*[#   7]
          +0.126*[#   8]
    |psi|^2 = 0.986
==== e(   2) =   -15.21955 eV ==== 
     psi = 0.170*[#   3]+0.170*[#   4]+0.170*[#   7]+0.170*[#   8]+0.154*[#   1]
          +0.154*[#   5]
    |psi|^2 = 0.985
==== e(   3) =    -8.62909 eV ==== 
     psi = 0.248*[#   3]+0.248*[#   4]+0.248*[#   7]+0.248*[#   8]+0.002*[#   1]
          +0.002*[#   5]
    |psi|^2 = 0.996
==== e(   4) =    -4.71130 eV ==== 
     psi = 0.499*[#   2]+0.499*[#   6]
    |psi|^2 = 0.997
==== e(   5) =     0.36136 eV ==== 
     psi = 0.469*[#   2]+0.469*[#   6]
    |psi|^2 = 0.938
==== e(   6) =     7.31447 eV ==== 
     psi = 0.335*[#   1]+0.335*[#   5]+0.044*[#   3]+0.044*[#   4]+0.044*[#   7]
          +0.044*[#   8]
    |psi|^2 = 0.847
==== e(   7) =     8.41583 eV ==== 
     psi = 0.005*[#   1]+0.005*[#   5]+0.004*[#   3]+0.004*[#   4]+0.004*[#   7]
          +0.004*[#   8]
    |psi|^2 = 0.026
==== e(   8) =     9.22410 eV ==== 
     psi = 0.002*[#   2]+0.002*[#   6]
    |psi|^2 = 0.004

 k =   0.0277777778  0.5613127617  0.0000000000
==== e(   1) =   -16.70527 eV ==== 
     psi = 0.267*[#   1]+0.267*[#   5]+0.114*[#   3]+0.114*[#   4]+0.114*[#   7]
          +0.114*[#   8]
    |psi|^2 = 0.990
==== e(   2) =   -15.85614 eV ==== 
     psi = 0.182*[#   3]+0.182*[#   4]+0.182*[#   7]+0.182*[#   8]+0.127*[#   1]
          +0.127*[#   5]
    |psi|^2 = 0.981
==== e(   3) =    -8.67040 eV ==== 
     psi = 0.248*[#   3]+0.248*[#   4]+0.248*[#   7]+0.248*[#   8]+0.002*[#   1]
          +0.002*[#   5]
    |psi|^2 = 0.996
==== e(   4) =    -4.44685 eV ==== 
     psi = 0.499*[#   2]+0.499*[#   6]
    |psi|^2 = 0.998
==== e(   5) =     0.02846 eV ==== 
     psi = 0.469*[#   2]+0.469*[#   6]
    |psi|^2 = 0.939
==== e(   6) =     7.30945 eV ==== 
     psi = 0.343*[#   1]+0.343*[#   5]+0.044*[#   3]+0.044*[#   4]+0.044*[#   7]
          +0.044*[#   8]
    |psi|^2 = 0.863
==== e(   7) =     9.31223 eV ==== 
     psi = 0.002*[#   1]+0.002*[#   5]+0.002*[#   3]+0.002*[#   4]+0.002*[#   7]
          +0.002*[#   8]
    |psi|^2 = 0.011
==== e(   8) =    10.14934 eV ==== 
     psi = 0.003*[#   2]+0.003*[#   6]
    |psi|^2 = 0.005

 k =   0.0555555556  0.0962250449  0.0000000000
==== e(   1) =   -22.30729 eV ==== 
     psi = 0.450*[#   1]+0.450*[#   5]+0.020*[#   3]+0.020*[#   4]+0.020*[#   7]
          +0.020*[#   8]
    |psi|^2 = 0.981
==== e(   2) =   -10.17240 eV ==== 
     psi = 0.472*[#   2]+0.472*[#   6]
    |psi|^2 = 0.944
==== e(   3) =    -5.59117 eV ==== 
     psi = 0.241*[#   3]+0.241*[#   4]+0.241*[#   7]+0.241*[#   8]+0.017*[#   1]
          +0.017*[#   5]
    |psi|^2 = 0.997
==== e(   4) =    -5.26151 eV ==== 
     psi = 0.248*[#   3]+0.248*[#   4]+0.248*[#   7]+0.248*[#   8]+0.002*[#   1]
          +0.002*[#   5]
    |psi|^2 = 0.996
==== e(   5) =     1.27174 eV ==== 
     psi = 0.007*[#   3]+0.007*[#   4]+0.007*[#   7]+0.007*[#   8]
    |psi|^2 = 0.029
==== e(   6) =     1.96588 eV ==== 
     psi = 0.009*[#   2]+0.009*[#   6]
    |psi|^2 = 0.017
==== e(   7) =     2.09443 eV ==== 

    |psi|^2 = 0.003
==== e(   8) =     3.09947 eV ==== 
     psi = 0.007*[#   2]+0.007*[#   6]
    |psi|^2 = 0.015

 k =   0.0555555556  0.1283000598  0.0000000000
==== e(   1) =   -22.16840 eV ==== 
     psi = 0.430*[#   1]+0.430*[#   5]+0.030*[#   3]+0.030*[#   4]+0.030*[#   7]
          +0.030*[#   8]
    |psi|^2 = 0.981
==== e(   2) =   -10.00075 eV ==== 
     psi = 0.474*[#   2]+0.474*[#   6]
    |psi|^2 = 0.948
==== e(   3) =    -6.04661 eV ==== 
     psi = 0.237*[#   3]+0.237*[#   4]+0.237*[#   7]+0.237*[#   8]+0.025*[#   1]
          +0.025*[#   5]
    |psi|^2 = 0.997
==== e(   4) =    -5.55624 eV ==== 
     psi = 0.247*[#   3]+0.247*[#   4]+0.247*[#   7]+0.247*[#   8]+0.004*[#   1]
          +0.004*[#   5]
    |psi|^2 = 0.995
==== e(   5) =     1.46397 eV ==== 
     psi = 0.009*[#   3]+0.009*[#   4]+0.009*[#   7]+0.009*[#   8]
    |psi|^2 = 0.036
==== e(   6) =     2.16134 eV ==== 
     psi = 0.008*[#   2]+0.008*[#   6]
    |psi|^2 = 0.016
==== e(   7) =     2.29091 eV ==== 

    |psi|^2 = 0.004
==== e(   8) =     3.29440 eV ==== 
     psi = 0.007*[#   2]+0.007*[#   6]
    |psi|^2 = 0.014

 k =   0.0555555556  0.1603750748  0.0000000000
==== e(   1) =   -21.99008 eV ==== 
     psi = 0.409*[#   1]+0.409*[#   5]+0.040*[#   3]+0.040*[#   4]+0.040*[#   7]
          +0.040*[#   8]
    |psi|^2 = 0.980
==== e(   2) =    -9.78083 eV ==== 
     psi = 0.477*[#   2]+0.477*[#   6]
    |psi|^2 = 0.953
==== e(   3) =    -6.60056 eV ==== 
     psi = 0.231*[#   3]+0.231*[#   4]+0.231*[#   7]+0.231*[#   8]+0.036*[#   1]
          +0.036*[#   5]
    |psi|^2 = 0.996
==== e(   4) =    -5.89112 eV ==== 
     psi = 0.246*[#   3]+0.246*[#   4]+0.246*[#   7]+0.246*[#   8]+0.005*[#   1]
          +0.005*[#   5]
    |psi|^2 = 0.995
==== e(   5) =     1.71117 eV ==== 
     psi = 0.011*[#   3]+0.011*[#   4]+0.011*[#   7]+0.011*[#   8]
    |psi|^2 = 0.042
==== e(   6) =     2.41253 eV ==== 
     psi = 0.007*[#   2]+0.007*[#   6]
    |psi|^2 = 0.015
==== e(   7) =     2.54354 eV ==== 
     psi = 0.001*[#   3]+0.001*[#   4]+0.001*[#   7]+0.001*[#   8]
    |psi|^2 = 0.004
==== e(   8) =     3.54486 eV ==== 
     psi = 0.006*[#   2]+0.006*[#   6]
    |psi|^2 = 0.012

 k =   0.0555555556  0.1924500897  0.0000000000
==== e(   1) =   -21.77254 eV ==== 
     psi = 0.388*[#   1]+0.388*[#   5]+0.051*[#   3]+0.051*[#   4]+0.051*[#   7]
          +0.051*[#   8]
    |psi|^2 = 0.980
==== e(   2) =    -9.51333 eV ==== 
     psi = 0.479*[#   2]+0.479*[#   6]
    |psi|^2 = 0.959
==== e(   3) =    -7.23532 eV ==== 
     psi = 0.225*[#   3]+0.225*[#   4]+0.225*[#   7]+0.225*[#   8]+0.047*[#   1]
          +0.047*[#   5]
    |psi|^2 = 0.995
==== e(   4) =    -6.24555 eV ==== 
     psi = 0.246*[#   3]+0.246*[#   4]+0.246*[#   7]+0.246*[#   8]+0.006*[#   1]
          +0.006*[#   5]
    |psi|^2 = 0.995
==== e(   5) =     2.01327 eV ==== 
     psi = 0.011*[#   3]+0.011*[#   4]+0.011*[#   7]+0.011*[#   8]
    |psi|^2 = 0.046
==== e(   6) =     2.71931 eV ==== 
     psi = 0.006*[#   2]+0.006*[#   6]
    |psi|^2 = 0.013
==== e(   7) =     2.85234 eV ==== 
     psi = 0.001*[#   3]+0.001*[#   4]+0.001*[#   7]+0.001*[#   8]
    |psi|^2 = 0.005
==== e(   8) =     3.85067 eV ==== 
     psi = 0.005*[#   2]+0.005*[#   6]
    |psi|^2 = 0.011

 k =   0.0555555556  0.2245251047  0.0000000000
==== e(   1) =   -21.51603 eV ==== 
     psi = 0.366*[#   1]+0.366*[#   5]+0.062*[#   3]+0.062*[#   4]+0.062*[#   7]
          +0.062*[#   8]
    |psi|^2 = 0.979
==== e(   2) =    -9.19915 eV ==== 
     psi = 0.482*[#   2]+0.482*[#   6]
    |psi|^2 = 0.965
==== e(   3) =    -7.93200 eV ==== 
     psi = 0.218*[#   3]+0.218*[#   4]+0.218*[#   7]+0.218*[#   8]+0.060*[#   1]
          +0.060*[#   5]
    |psi|^2 = 0.994
==== e(   4) =    -6.60410 eV ==== 
     psi = 0.246*[#   3]+0.246*[#   4]+0.246*[#   7]+0.246*[#   8]+0.007*[#   1]
          +0.007*[#   5]
    |psi|^2 = 0.995
==== e(   5) =     2.37017 eV ==== 
     psi = 0.011*[#   3]+0.011*[#   4]+0.011*[#   7]+0.011*[#   8]
    |psi|^2 = 0.046
==== e(   6) =     3.08143 eV ==== 
     psi = 0.006*[#   2]+0.006*[#   6]
    |psi|^2 = 0.011
==== e(   7) =     3.21730 eV ==== 
     psi = 0.001*[#   3]+0.001*[#   4]+0.001*[#   7]+0.001*[#   8]
    |psi|^2 = 0.004
==== e(   8) =     4.21147 eV ==== 
     psi = 0.005*[#   2]+0.005*[#   6]
    |psi|^2 = 0.009

 k =   0.0555555556  0.2566001196  0.0000000000
==== e(   1) =   -21.22087 eV ==== 
     psi = 0.346*[#   1]+0.346*[#   5]+0.072*[#   3]+0.072*[#   4]+0.072*[#   7]
          +0.072*[#   8]
    |psi|^2 = 0.979
==== e(   2) =    -8.83951 eV ==== 
     psi = 0.485*[#   2]+0.485*[#   6]
    |psi|^2 = 0.971
==== e(   3) =    -8.67304 eV ==== 
     psi = 0.212*[#   3]+0.212*[#   4]+0.212*[#   7]+0.212*[#   8]+0.073*[#   1]
          +0.073*[#   5]
    |psi|^2 = 0.993
==== e(   4) =    -6.95528 eV ==== 
     psi = 0.245*[#   3]+0.245*[#   4]+0.245*[#   7]+0.245*[#   8]+0.007*[#   1]
          +0.007*[#   5]
    |psi|^2 = 0.996
==== e(   5) =     2.78171 eV ==== 
     psi = 0.011*[#   3]+0.011*[#   4]+0.011*[#   7]+0.011*[#   8]
    |psi|^2 = 0.044
==== e(   6) =     3.49836 eV ==== 
     psi = 0.005*[#   2]+0.005*[#   6]
    |psi|^2 = 0.010
==== e(   7) =     3.63839 eV ==== 

    |psi|^2 = 0.004
==== e(   8) =     4.62629 eV ==== 
     psi = 0.004*[#   2]+0.004*[#   6]
    |psi|^2 = 0.008

 k =   0.0555555556  0.2886751346  0.0000000000
==== e(   1) =   -20.88742 eV ==== 
     psi = 0.328*[#   1]+0.328*[#   5]+0.081*[#   3]+0.081*[#   4]+0.081*[#   7]
          +0.081*[#   8]
    |psi|^2 = 0.979
==== e(   2) =    -9.44327 eV ==== 
     psi = 0.205*[#   3]+0.205*[#   4]+0.205*[#   7]+0.205*[#   8]+0.086*[#   1]
          +0.086*[#   5]
    |psi|^2 = 0.992
==== e(   3) =    -8.43609 eV ==== 
     psi = 0.488*[#   2]+0.488*[#   6]
    |psi|^2 = 0.977
==== e(   4) =    -7.29036 eV ==== 
     psi = 0.245*[#   3]+0.245*[#   4]+0.245*[#   7]+0.245*[#   8]+0.007*[#   1]
          +0.007*[#   5]
    |psi|^2 = 0.996
==== e(   5) =     3.24769 eV ==== 
     psi = 0.010*[#   3]+0.010*[#   4]+0.010*[#   7]+0.010*[#   8]
    |psi|^2 = 0.039
==== e(   6) =     3.96854 eV ==== 
     psi = 0.005*[#   2]+0.005*[#   6]
    |psi|^2 = 0.009
==== e(   7) =     4.11561 eV ==== 

    |psi|^2 = 0.003
==== e(   8) =     5.09065 eV ==== 
     psi = 0.006*[#   2]+0.006*[#   6]
    |psi|^2 = 0.012

 k =   0.0555555556  0.3207501495  0.0000000000
==== e(   1) =   -20.51615 eV ==== 
     psi = 0.310*[#   1]+0.310*[#   5]+0.089*[#   3]+0.089*[#   4]+0.089*[#   7]
          +0.089*[#   8]
    |psi|^2 = 0.979
==== e(   2) =   -10.23013 eV ==== 
     psi = 0.199*[#   3]+0.199*[#   4]+0.199*[#   7]+0.199*[#   8]+0.098*[#   1]
          +0.098*[#   5]
    |psi|^2 = 0.992
==== e(   3) =    -7.99122 eV ==== 
     psi = 0.491*[#   2]+0.491*[#   6]
    |psi|^2 = 0.982
==== e(   4) =    -7.60271 eV ==== 
     psi = 0.245*[#   3]+0.245*[#   4]+0.245*[#   7]+0.245*[#   8]+0.007*[#   1]
          +0.007*[#   5]
    |psi|^2 = 0.996
==== e(   5) =     3.76782 eV ==== 
     psi = 0.008*[#   3]+0.008*[#   4]+0.008*[#   7]+0.008*[#   8]
    |psi|^2 = 0.033
==== e(   6) =     4.48252 eV ==== 
     psi = 0.011*[#   2]+0.011*[#   6]
    |psi|^2 = 0.022
==== e(   7) =     4.64891 eV ==== 

    |psi|^2 = 0.003
==== e(   8) =     5.46171 eV ==== 
     psi = 0.244*[#   2]+0.244*[#   6]
    |psi|^2 = 0.489

 k =   0.0555555556  0.3528251645  0.0000000000
==== e(   1) =   -20.10761 eV ==== 
     psi = 0.295*[#   1]+0.295*[#   5]+0.097*[#   3]+0.097*[#   4]+0.097*[#   7]
          +0.097*[#   8]
    |psi|^2 = 0.979
==== e(   2) =   -11.02333 eV ==== 
     psi = 0.193*[#   3]+0.193*[#   4]+0.193*[#   7]+0.193*[#   8]+0.109*[#   1]
          +0.109*[#   5]
    |psi|^2 = 0.991
==== e(   3) =    -7.88726 eV ==== 
     psi = 0.245*[#   3]+0.245*[#   4]+0.245*[#   7]+0.245*[#   8]+0.008*[#   1]
          +0.008*[#   5]
    |psi|^2 = 0.996
==== e(   4) =    -7.50825 eV ==== 
     psi = 0.493*[#   2]+0.493*[#   6]
    |psi|^2 = 0.987
==== e(   5) =     4.34170 eV ==== 
     psi = 0.006*[#   3]+0.006*[#   4]+0.006*[#   7]+0.006*[#   8]
    |psi|^2 = 0.026
==== e(   6) =     4.59633 eV ==== 
     psi = 0.405*[#   2]+0.405*[#   6]
    |psi|^2 = 0.809
==== e(   7) =     5.15385 eV ==== 
     psi = 0.058*[#   2]+0.058*[#   6]
    |psi|^2 = 0.116
==== e(   8) =     5.23824 eV ==== 

    |psi|^2 = 0.002

 k =   0.0555555556  0.3849001795  0.0000000000
==== e(   1) =   -19.66245 eV ==== 
     psi = 0.280*[#   1]+0.280*[#   5]+0.105*[#   3]+0.105*[#   4]+0.105*[#   7]
          +0.105*[#   8]
    |psi|^2 = 0.980
==== e(   2) =   -11.81455 eV ==== 
     psi = 0.187*[#   3]+0.187*[#   4]+0.187*[#   7]+0.187*[#   8]+0.120*[#   1]
          +0.120*[#   5]
    |psi|^2 = 0.991
==== e(   3) =    -8.14011 eV ==== 
     psi = 0.245*[#   3]+0.245*[#   4]+0.245*[#   7]+0.245*[#   8]+0.008*[#   1]
          +0.008*[#   5]
    |psi|^2 = 0.996
==== e(   4) =    -6.99216 eV ==== 
     psi = 0.495*[#   2]+0.495*[#   6]
    |psi|^2 = 0.990
==== e(   5) =     3.74971 eV ==== 
     psi = 0.460*[#   2]+0.460*[#   6]
    |psi|^2 = 0.919
==== e(   6) =     4.96873 eV ==== 
     psi = 0.005*[#   3]+0.005*[#   4]+0.005*[#   7]+0.005*[#   8]
    |psi|^2 = 0.019
==== e(   7) =     5.74978 eV ==== 
     psi = 0.007*[#   2]+0.007*[#   6]
    |psi|^2 = 0.015
==== e(   8) =     5.88346 eV ==== 

    |psi|^2 = 0.001

 k =   0.0555555556  0.4169751944  0.0000000000
==== e(   1) =   -19.18154 eV ==== 
     psi = 0.267*[#   1]+0.267*[#   5]+0.112*[#   3]+0.112*[#   4]+0.112*[#   7]
          +0.112*[#   8]
    |psi|^2 = 0.980
==== e(   2) =   -12.59691 eV ==== 
     psi = 0.182*[#   3]+0.182*[#   4]+0.182*[#   7]+0.182*[#   8]+0.131*[#   1]
          +0.131*[#   5]
    |psi|^2 = 0.990
==== e(   3) =    -8.35826 eV ==== 
     psi = 0.245*[#   3]+0.245*[#   4]+0.245*[#   7]+0.245*[#   8]+0.008*[#   1]
          +0.008*[#   5]
    |psi|^2 = 0.996
==== e(   4) =    -6.45072 eV ==== 
     psi = 0.497*[#   2]+0.497*[#   6]
    |psi|^2 = 0.993
==== e(   5) =     2.87978 eV ==== 
     psi = 0.465*[#   2]+0.465*[#   6]
    |psi|^2 = 0.929
==== e(   6) =     5.64775 eV ==== 
     psi = 0.003*[#   3]+0.003*[#   4]+0.003*[#   7]+0.003*[#   8]+0.001*[#   1]
          +0.001*[#   5]
    |psi|^2 = 0.014
==== e(   7) =     6.43740 eV ==== 
     psi = 0.004*[#   2]+0.004*[#   6]
    |psi|^2 = 0.007
==== e(   8) =     6.58407 eV ==== 

    |psi|^2 = 0.002

 k =   0.0555555556  0.4490502094  0.0000000000
==== e(   1) =   -18.66600 eV ==== 
     psi = 0.255*[#   1]+0.255*[#   5]+0.118*[#   3]+0.118*[#   4]+0.118*[#   7]
          +0.118*[#   8]
    |psi|^2 = 0.982
==== e(   2) =   -13.36465 eV ==== 
     psi = 0.177*[#   3]+0.177*[#   4]+0.177*[#   7]+0.177*[#   8]+0.140*[#   1]
          +0.140*[#   5]
    |psi|^2 = 0.989
==== e(   3) =    -8.53945 eV ==== 
     psi = 0.245*[#   3]+0.245*[#   4]+0.245*[#   7]+0.245*[#   8]+0.008*[#   1]
          +0.008*[#   5]
    |psi|^2 = 0.996
==== e(   4) =    -5.89684 eV ==== 
     psi = 0.497*[#   2]+0.497*[#   6]
    |psi|^2 = 0.995
==== e(   5) =     2.04400 eV ==== 
     psi = 0.467*[#   2]+0.467*[#   6]
    |psi|^2 = 0.934
==== e(   6) =     6.37576 eV ==== 
     psi = 0.004*[#   1]+0.004*[#   5]+0.001*[#   3]+0.001*[#   4]+0.001*[#   7]
          +0.001*[#   8]
    |psi|^2 = 0.013
==== e(   7) =     7.18271 eV ==== 
     psi = 0.003*[#   2]+0.003*[#   6]
    |psi|^2 = 0.005
==== e(   8) =     7.33547 eV ==== 
     psi = 0.008*[#   1]+0.008*[#   5]
    |psi|^2 = 0.019

 k =   0.0555555556  0.4811252243  0.0000000000
==== e(   1) =   -18.11761 eV ==== 
     psi = 0.246*[#   1]+0.246*[#   5]+0.123*[#   3]+0.123*[#   4]+0.123*[#   7]
          +0.123*[#   8]
    |psi|^2 = 0.983
==== e(   2) =   -14.11252 eV ==== 
     psi = 0.173*[#   3]+0.173*[#   4]+0.173*[#   7]+0.173*[#   8]+0.148*[#   1]
          +0.148*[#   5]
    |psi|^2 = 0.988
==== e(   3) =    -8.68197 eV ==== 
     psi = 0.245*[#   3]+0.245*[#   4]+0.245*[#   7]+0.245*[#   8]+0.008*[#   1]
          +0.008*[#   5]
    |psi|^2 = 0.996
==== e(   4) =    -5.35320 eV ==== 
     psi = 0.498*[#   2]+0.498*[#   6]
    |psi|^2 = 0.996
==== e(   5) =     1.27439 eV ==== 
     psi = 0.469*[#   2]+0.469*[#   6]
    |psi|^2 = 0.937
==== e(   6) =     7.13458 eV ==== 
     psi = 0.029*[#   1]+0.029*[#   5]
    |psi|^2 = 0.061
==== e(   7) =     7.68168 eV ==== 
     psi = 0.286*[#   1]+0.286*[#   5]+0.056*[#   3]+0.056*[#   4]+0.056*[#   7]
          +0.056*[#   8]
    |psi|^2 = 0.794
==== e(   8) =     7.98195 eV ==== 
     psi = 0.002*[#   2]+0.002*[#   6]
    |psi|^2 = 0.004

 k =   0.0555555556  0.5132002393  0.0000000000
==== e(   1) =   -17.53995 eV ==== 
     psi = 0.240*[#   1]+0.240*[#   5]+0.126*[#   3]+0.126*[#   4]+0.126*[#   7]
          +0.126*[#   8]
    |psi|^2 = 0.985
==== e(   2) =   -14.83437 eV ==== 
     psi = 0.170*[#   3]+0.170*[#   4]+0.170*[#   7]+0.170*[#   8]+0.153*[#   1]
          +0.153*[#   5]
    |psi|^2 = 0.987
==== e(   3) =    -8.78460 eV ==== 
     psi = 0.245*[#   3]+0.245*[#   4]+0.245*[#   7]+0.245*[#   8]+0.008*[#   1]
          +0.008*[#   5]
    |psi|^2 = 0.996
==== e(   4) =    -4.86136 eV ==== 
     psi = 0.498*[#   2]+0.498*[#   6]
    |psi|^2 = 0.997
==== e(   5) =     0.61781 eV ==== 
     psi = 0.470*[#   2]+0.470*[#   6]
    |psi|^2 = 0.939
==== e(   6) =     7.55927 eV ==== 
     psi = 0.302*[#   1]+0.302*[#   5]+0.042*[#   3]+0.042*[#   4]+0.042*[#   7]
          +0.042*[#   8]
    |psi|^2 = 0.770
==== e(   7) =     8.06487 eV ==== 
     psi = 0.027*[#   1]+0.027*[#   5]+0.011*[#   3]+0.011*[#   4]+0.011*[#   7]
          +0.011*[#   8]
    |psi|^2 = 0.097
==== e(   8) =     8.83268 eV ==== 
     psi = 0.002*[#   2]+0.002*[#   6]
    |psi|^2 = 0.004

 k =   0.0555555556  0.5452752542  0.0000000000
==== e(   1) =   -16.94619 eV ==== 
     psi = 0.245*[#   1]+0.245*[#   5]+0.124*[#   3]+0.124*[#   4]+0.124*[#   7]
          +0.124*[#   8]
    |psi|^2 = 0.987
==== e(   2) =   -15.51532 eV ==== 
     psi = 0.173*[#   3]+0.173*[#   4]+0.173*[#   7]+0.173*[#   8]+0.147*[#   1]
          +0.147*[#   5]
    |psi|^2 = 0.984
==== e(   3) =    -8.84650 eV ==== 
     psi = 0.245*[#   3]+0.245*[#   4]+0.245*[#   7]+0.245*[#   8]+0.008*[#   1]
          +0.008*[#   5]
    |psi|^2 = 0.996
==== e(   4) =    -4.49491 eV ==== 
     psi = 0.499*[#   2]+0.499*[#   6]
    |psi|^2 = 0.997
==== e(   5) =     0.15122 eV ==== 
     psi = 0.470*[#   2]+0.470*[#   6]
    |psi|^2 = 0.940
==== e(   6) =     7.57051 eV ==== 
     psi = 0.333*[#   1]+0.333*[#   5]+0.047*[#   3]+0.047*[#   4]+0.047*[#   7]
          +0.047*[#   8]
    |psi|^2 = 0.852
==== e(   7) =     8.91670 eV ==== 
     psi = 0.003*[#   1]+0.003*[#   3]+0.003*[#   4]+0.003*[#   5]+0.003*[#   7]
          +0.003*[#   8]
    |psi|^2 = 0.016
==== e(   8) =     9.73103 eV ==== 
     psi = 0.002*[#   2]+0.002*[#   6]
    |psi|^2 = 0.005

 k =   0.0555555556  0.5773502692  0.0000000000
==== e(   1) =   -16.51139 eV ==== 
     psi = 0.300*[#   1]+0.300*[#   5]+0.099*[#   3]+0.099*[#   4]+0.099*[#   7]
          +0.099*[#   8]
    |psi|^2 = 0.993
==== e(   2) =   -15.97929 eV ==== 
     psi = 0.198*[#   3]+0.198*[#   4]+0.198*[#   7]+0.198*[#   8]+0.093*[#   1]
          +0.093*[#   5]
    |psi|^2 = 0.978
==== e(   3) =    -8.86718 eV ==== 
     psi = 0.245*[#   3]+0.245*[#   4]+0.245*[#   7]+0.245*[#   8]+0.008*[#   1]
          +0.008*[#   5]
    |psi|^2 = 0.996
==== e(   4) =    -4.35427 eV ==== 
     psi = 0.499*[#   2]+0.499*[#   6]
    |psi|^2 = 0.998
==== e(   5) =    -0.02301 eV ==== 
     psi = 0.470*[#   2]+0.470*[#   6]
    |psi|^2 = 0.941
==== e(   6) =     7.56776 eV ==== 
     psi = 0.336*[#   1]+0.336*[#   5]+0.047*[#   3]+0.047*[#   4]+0.047*[#   7]
          +0.047*[#   8]
    |psi|^2 = 0.859
==== e(   7) =     9.77475 eV ==== 
     psi = 0.004*[#   1]+0.004*[#   5]
    |psi|^2 = 0.009
==== e(   8) =     9.91138 eV ==== 
     psi = 0.003*[#   3]+0.003*[#   4]+0.003*[#   7]+0.003*[#   8]
    |psi|^2 = 0.011

 k =   0.0833333333  0.1443375673  0.0000000000
==== e(   1) =   -22.00988 eV ==== 
     psi = 0.411*[#   1]+0.411*[#   5]+0.039*[#   3]+0.039*[#   4]+0.039*[#   7]
          +0.039*[#   8]
    |psi|^2 = 0.980
==== e(   2) =    -9.80521 eV ==== 
     psi = 0.476*[#   2]+0.476*[#   6]
    |psi|^2 = 0.953
==== e(   3) =    -6.50231 eV ==== 
     psi = 0.233*[#   3]+0.233*[#   4]+0.233*[#   7]+0.233*[#   8]+0.033*[#   1]
          +0.033*[#   5]
    |psi|^2 = 0.998
==== e(   4) =    -5.89976 eV ==== 
     psi = 0.245*[#   3]+0.245*[#   4]+0.245*[#   7]+0.245*[#   8]+0.007*[#   1]
          +0.007*[#   5]
    |psi|^2 = 0.994
==== e(   5) =     1.68377 eV ==== 
     psi = 0.010*[#   3]+0.010*[#   4]+0.010*[#   7]+0.010*[#   8]
    |psi|^2 = 0.042
==== e(   6) =     2.38464 eV ==== 
     psi = 0.007*[#   2]+0.007*[#   6]
    |psi|^2 = 0.015
==== e(   7) =     2.51549 eV ==== 
     psi = 0.001*[#   3]+0.001*[#   4]+0.001*[#   7]+0.001*[#   8]
    |psi|^2 = 0.004
==== e(   8) =     3.51706 eV ==== 
     psi = 0.006*[#   2]+0.006*[#   6]
    |psi|^2 = 0.012

 k =   0.0833333333  0.1764125823  0.0000000000
==== e(   1) =   -21.81207 eV ==== 
     psi = 0.391*[#   1]+0.391*[#   5]+0.049*[#   3]+0.049*[#   4]+0.049*[#   7]
          +0.049*[#   8]
    |psi|^2 = 0.980
==== e(   2) =    -9.56180 eV ==== 
     psi = 0.479*[#   2]+0.479*[#   6]
    |psi|^2 = 0.958
==== e(   3) =    -7.04323 eV ==== 
     psi = 0.228*[#   3]+0.228*[#   4]+0.228*[#   7]+0.228*[#   8]+0.042*[#   1]
          +0.042*[#   5]
    |psi|^2 = 0.997
==== e(   4) =    -6.27921 eV ==== 
     psi = 0.243*[#   3]+0.243*[#   4]+0.243*[#   7]+0.243*[#   8]+0.010*[#   1]
          +0.010*[#   5]
    |psi|^2 = 0.993
==== e(   5) =     1.95853 eV ==== 
     psi = 0.011*[#   3]+0.011*[#   4]+0.011*[#   7]+0.011*[#   8]
    |psi|^2 = 0.046
==== e(   6) =     2.66359 eV ==== 
     psi = 0.007*[#   2]+0.007*[#   6]
    |psi|^2 = 0.013
==== e(   7) =     2.79623 eV ==== 
     psi = 0.001*[#   3]+0.001*[#   4]+0.001*[#   7]+0.001*[#   8]
    |psi|^2 = 0.005
==== e(   8) =     3.79518 eV ==== 
     psi = 0.006*[#   2]+0.006*[#   6]
    |psi|^2 = 0.011

 k =   0.0833333333  0.2084875972  0.0000000000
==== e(   1) =   -21.57520 eV ==== 
     psi = 0.371*[#   1]+0.371*[#   5]+0.059*[#   3]+0.059*[#   4]+0.059*[#   7]
          +0.059*[#   8]
    |psi|^2 = 0.979
==== e(   2) =    -9.27130 eV ==== 
     psi = 0.482*[#   2]+0.482*[#   6]
    |psi|^2 = 0.963
==== e(   3) =    -7.66215 eV ==== 
     psi = 0.222*[#   3]+0.222*[#   4]+0.222*[#   7]+0.222*[#   8]+0.054*[#   1]
          +0.054*[#   5]
    |psi|^2 = 0.996
==== e(   4) =    -6.66634 eV ==== 
     psi = 0.242*[#   3]+0.242*[#   4]+0.242*[#   7]+0.242*[#   8]+0.012*[#   1]
          +0.012*[#   5]
    |psi|^2 = 0.993
==== e(   5) =     2.28816 eV ==== 
     psi = 0.012*[#   3]+0.012*[#   4]+0.012*[#   7]+0.012*[#   8]
    |psi|^2 = 0.047
==== e(   6) =     2.99804 eV ==== 
     psi = 0.006*[#   2]+0.006*[#   6]
    |psi|^2 = 0.012
==== e(   7) =     3.13314 eV ==== 
     psi = 0.001*[#   3]+0.001*[#   4]+0.001*[#   7]+0.001*[#   8]
    |psi|^2 = 0.005
==== e(   8) =     4.12852 eV ==== 
     psi = 0.005*[#   2]+0.005*[#   6]
    |psi|^2 = 0.010

 k =   0.0833333333  0.2405626122  0.0000000000
==== e(   1) =   -21.29956 eV ==== 
     psi = 0.351*[#   1]+0.351*[#   5]+0.069*[#   3]+0.069*[#   4]+0.069*[#   7]
          +0.069*[#   8]
    |psi|^2 = 0.979
==== e(   2) =    -8.93475 eV ==== 
     psi = 0.485*[#   2]+0.485*[#   6]
    |psi|^2 = 0.969
==== e(   3) =    -8.34442 eV ==== 
     psi = 0.216*[#   3]+0.216*[#   4]+0.216*[#   7]+0.216*[#   8]+0.066*[#   1]
          +0.066*[#   5]
    |psi|^2 = 0.995
==== e(   4) =    -7.04416 eV ==== 
     psi = 0.242*[#   3]+0.242*[#   4]+0.242*[#   7]+0.242*[#   8]+0.014*[#   1]
          +0.014*[#   5]
    |psi|^2 = 0.993
==== e(   5) =     2.67251 eV ==== 
     psi = 0.011*[#   3]+0.011*[#   4]+0.011*[#   7]+0.011*[#   8]
    |psi|^2 = 0.046
==== e(   6) =     3.38764 eV ==== 
     psi = 0.005*[#   2]+0.005*[#   6]
    |psi|^2 = 0.010
==== e(   7) =     3.52620 eV ==== 
     psi = 0.001*[#   3]+0.001*[#   4]+0.001*[#   7]+0.001*[#   8]
    |psi|^2 = 0.004
==== e(   8) =     4.51657 eV ==== 
     psi = 0.004*[#   2]+0.004*[#   6]
    |psi|^2 = 0.008

 k =   0.0833333333  0.2726376271  0.0000000000
==== e(   1) =   -20.98549 eV ==== 
     psi = 0.333*[#   1]+0.333*[#   5]+0.078*[#   3]+0.078*[#   4]+0.078*[#   7]
          +0.078*[#   8]
    |psi|^2 = 0.979
==== e(   2) =    -9.07273 eV ==== 
     psi = 0.209*[#   3]+0.209*[#   4]+0.209*[#   7]+0.209*[#   8]+0.078*[#   1]
          +0.078*[#   5]
    |psi|^2 = 0.994
==== e(   3) =    -8.55359 eV ==== 
     psi = 0.488*[#   2]+0.488*[#   6]
    |psi|^2 = 0.975
==== e(   4) =    -7.40326 eV ==== 
     psi = 0.241*[#   3]+0.241*[#   4]+0.241*[#   7]+0.241*[#   8]+0.015*[#   1]
          +0.015*[#   5]
    |psi|^2 = 0.994
==== e(   5) =     3.11140 eV ==== 
     psi = 0.010*[#   3]+0.010*[#   4]+0.010*[#   7]+0.010*[#   8]
    |psi|^2 = 0.042
==== e(   6) =     3.83160 eV ==== 
     psi = 0.004*[#   2]+0.004*[#   6]
    |psi|^2 = 0.009
==== e(   7) =     3.97540 eV ==== 

    |psi|^2 = 0.004
==== e(   8) =     4.95757 eV ==== 
     psi = 0.004*[#   2]+0.004*[#   6]
    |psi|^2 = 0.008

 k =   0.0833333333  0.3047126421  0.0000000000
==== e(   1) =   -20.63343 eV ==== 
     psi = 0.315*[#   1]+0.315*[#   5]+0.087*[#   3]+0.087*[#   4]+0.087*[#   7]
          +0.087*[#   8]
    |psi|^2 = 0.979
==== e(   2) =    -9.83110 eV ==== 
     psi = 0.203*[#   3]+0.203*[#   4]+0.203*[#   7]+0.203*[#   8]+0.090*[#   1]
          +0.090*[#   5]
    |psi|^2 = 0.993
==== e(   3) =    -8.12977 eV ==== 
     psi = 0.490*[#   2]+0.490*[#   6]
    |psi|^2 = 0.981
==== e(   4) =    -7.73773 eV ==== 
     psi = 0.241*[#   3]+0.241*[#   4]+0.241*[#   7]+0.241*[#   8]+0.015*[#   1]
          +0.015*[#   5]
    |psi|^2 = 0.994
==== e(   5) =     3.60460 eV ==== 
     psi = 0.009*[#   3]+0.009*[#   4]+0.009*[#   7]+0.009*[#   8]
    |psi|^2 = 0.036
==== e(   6) =     4.32661 eV ==== 
     psi = 0.005*[#   2]+0.005*[#   6]
    |psi|^2 = 0.011
==== e(   7) =     4.48071 eV ==== 

    |psi|^2 = 0.003
==== e(   8) =     5.43217 eV ==== 
     psi = 0.027*[#   2]+0.027*[#   6]
    |psi|^2 = 0.054

 k =   0.0833333333  0.3367876570  0.0000000000
==== e(   1) =   -20.24388 eV ==== 
     psi = 0.299*[#   1]+0.299*[#   5]+0.095*[#   3]+0.095*[#   4]+0.095*[#   7]
          +0.095*[#   8]
    |psi|^2 = 0.979
==== e(   2) =   -10.60620 eV ==== 
     psi = 0.197*[#   3]+0.197*[#   4]+0.197*[#   7]+0.197*[#   8]+0.102*[#   1]
          +0.102*[#   5]
    |psi|^2 = 0.992
==== e(   3) =    -8.04328 eV ==== 
     psi = 0.241*[#   3]+0.241*[#   4]+0.241*[#   7]+0.241*[#   8]+0.016*[#   1]
          +0.016*[#   5]
    |psi|^2 = 0.995
==== e(   4) =    -7.66602 eV ==== 
     psi = 0.493*[#   2]+0.493*[#   6]
    |psi|^2 = 0.985
==== e(   5) =     4.15177 eV ==== 
     psi = 0.007*[#   3]+0.007*[#   4]+0.007*[#   7]+0.007*[#   8]
    |psi|^2 = 0.029
==== e(   6) =     4.79708 eV ==== 
     psi = 0.135*[#   2]+0.135*[#   6]
    |psi|^2 = 0.269
==== e(   7) =     5.04210 eV ==== 

    |psi|^2 = 0.002
==== e(   8) =     5.11793 eV ==== 
     psi = 0.327*[#   2]+0.327*[#   6]
    |psi|^2 = 0.653

 k =   0.0833333333  0.3688626720  0.0000000000
==== e(   1) =   -19.81747 eV ==== 
     psi = 0.285*[#   1]+0.285*[#   5]+0.103*[#   3]+0.103*[#   4]+0.103*[#   7]
          +0.103*[#   8]
    |psi|^2 = 0.979
==== e(   2) =   -11.38726 eV ==== 
     psi = 0.191*[#   3]+0.191*[#   4]+0.191*[#   7]+0.191*[#   8]+0.114*[#   1]
          +0.114*[#   5]
    |psi|^2 = 0.991
==== e(   3) =    -8.31659 eV ==== 
     psi = 0.241*[#   3]+0.241*[#   4]+0.241*[#   7]+0.241*[#   8]+0.016*[#   1]
          +0.016*[#   5]
    |psi|^2 = 0.995
==== e(   4) =    -7.16636 eV ==== 
     psi = 0.495*[#   2]+0.495*[#   6]
    |psi|^2 = 0.989
==== e(   5) =     4.12996 eV ==== 
     psi = 0.459*[#   2]+0.459*[#   6]
    |psi|^2 = 0.919
==== e(   6) =     4.75249 eV ==== 
     psi = 0.006*[#   3]+0.006*[#   4]+0.006*[#   7]+0.006*[#   8]
    |psi|^2 = 0.023
==== e(   7) =     5.52551 eV ==== 
     psi = 0.010*[#   2]+0.010*[#   6]
    |psi|^2 = 0.020
==== e(   8) =     5.65950 eV ==== 

    |psi|^2 = 0.002

 k =   0.0833333333  0.4009376869  0.0000000000
==== e(   1) =   -19.35497 eV ==== 
     psi = 0.271*[#   1]+0.271*[#   5]+0.109*[#   3]+0.109*[#   4]+0.109*[#   7]
          +0.109*[#   8]
    |psi|^2 = 0.980
==== e(   2) =   -12.16563 eV ==== 
     psi = 0.186*[#   3]+0.186*[#   4]+0.186*[#   7]+0.186*[#   8]+0.124*[#   1]
          +0.124*[#   5]
    |psi|^2 = 0.991
==== e(   3) =    -8.55503 eV ==== 
     psi = 0.241*[#   3]+0.241*[#   4]+0.241*[#   7]+0.241*[#   8]+0.016*[#   1]
          +0.016*[#   5]
    |psi|^2 = 0.995
==== e(   4) =    -6.63686 eV ==== 
     psi = 0.496*[#   2]+0.496*[#   6]
    |psi|^2 = 0.992
==== e(   5) =     3.26730 eV ==== 
     psi = 0.467*[#   2]+0.467*[#   6]
    |psi|^2 = 0.933
==== e(   6) =     5.40607 eV ==== 
     psi = 0.004*[#   3]+0.004*[#   4]+0.004*[#   7]+0.004*[#   8]
    |psi|^2 = 0.016
==== e(   7) =     6.18287 eV ==== 
     psi = 0.004*[#   2]+0.004*[#   6]
    |psi|^2 = 0.008
==== e(   8) =     6.33277 eV ==== 

    |psi|^2 = 0.001

 k =   0.0833333333  0.4330127019  0.0000000000
==== e(   1) =   -18.85738 eV ==== 
     psi = 0.259*[#   1]+0.259*[#   5]+0.116*[#   3]+0.116*[#   4]+0.116*[#   7]
          +0.116*[#   8]
    |psi|^2 = 0.981
==== e(   2) =   -12.93429 eV ==== 
     psi = 0.180*[#   3]+0.180*[#   4]+0.180*[#   7]+0.180*[#   8]+0.134*[#   1]
          +0.134*[#   5]
    |psi|^2 = 0.990
==== e(   3) =    -8.75653 eV ==== 
     psi = 0.241*[#   3]+0.241*[#   4]+0.241*[#   7]+0.241*[#   8]+0.016*[#   1]
          +0.016*[#   5]
    |psi|^2 = 0.995
==== e(   4) =    -6.08729 eV ==== 
     psi = 0.497*[#   2]+0.497*[#   6]
    |psi|^2 = 0.994
==== e(   5) =     2.42285 eV ==== 
     psi = 0.469*[#   2]+0.469*[#   6]
    |psi|^2 = 0.937
==== e(   6) =     6.11125 eV ==== 
     psi = 0.002*[#   3]+0.002*[#   4]+0.002*[#   7]+0.002*[#   8]+0.001*[#   1]
          +0.001*[#   5]
    |psi|^2 = 0.012
==== e(   7) =     6.89965 eV ==== 
     psi = 0.003*[#   2]+0.003*[#   6]
    |psi|^2 = 0.005
==== e(   8) =     7.06136 eV ==== 

    |psi|^2 = 0.002

 k =   0.0833333333  0.4650877168  0.0000000000
==== e(   1) =   -18.32615 eV ==== 
     psi = 0.248*[#   1]+0.248*[#   5]+0.121*[#   3]+0.121*[#   4]+0.121*[#   7]
          +0.121*[#   8]
    |psi|^2 = 0.982
==== e(   2) =   -13.68723 eV ==== 
     psi = 0.176*[#   3]+0.176*[#   4]+0.176*[#   7]+0.176*[#   8]+0.143*[#   1]
          +0.143*[#   5]
    |psi|^2 = 0.989
==== e(   3) =    -8.91949 eV ==== 
     psi = 0.241*[#   3]+0.241*[#   4]+0.241*[#   7]+0.241*[#   8]+0.016*[#   1]
          +0.016*[#   5]
    |psi|^2 = 0.995
==== e(   4) =    -5.53435 eV ==== 
     psi = 0.498*[#   2]+0.498*[#   6]
    |psi|^2 = 0.996
==== e(   5) =     1.62519 eV ==== 
     psi = 0.470*[#   2]+0.470*[#   6]
    |psi|^2 = 0.940
==== e(   6) =     6.86472 eV ==== 
     psi = 0.005*[#   1]+0.005*[#   5]
    |psi|^2 = 0.014
==== e(   7) =     7.67028 eV ==== 
     psi = 0.002*[#   2]+0.002*[#   6]
    |psi|^2 = 0.004
==== e(   8) =     7.83819 eV ==== 
     psi = 0.014*[#   1]+0.014*[#   5]+0.002*[#   3]+0.002*[#   4]+0.002*[#   7]
          +0.002*[#   8]
    |psi|^2 = 0.035

 k =   0.0833333333  0.4971627318  0.0000000000
==== e(   1) =   -17.76374 eV ==== 
     psi = 0.240*[#   1]+0.240*[#   5]+0.126*[#   3]+0.126*[#   4]+0.126*[#   7]
          +0.126*[#   8]
    |psi|^2 = 0.984
==== e(   2) =   -14.41862 eV ==== 
     psi = 0.172*[#   3]+0.172*[#   4]+0.172*[#   7]+0.172*[#   8]+0.150*[#   1]
          +0.150*[#   5]
    |psi|^2 = 0.988
==== e(   3) =    -9.04270 eV ==== 
     psi = 0.241*[#   3]+0.241*[#   4]+0.241*[#   7]+0.241*[#   8]+0.016*[#   1]
          +0.016*[#   5]
    |psi|^2 = 0.995
==== e(   4) =    -5.00831 eV ==== 
     psi = 0.498*[#   2]+0.498*[#   6]
    |psi|^2 = 0.996
==== e(   5) =     0.91083 eV ==== 
     psi = 0.471*[#   2]+0.471*[#   6]
    |psi|^2 = 0.942
==== e(   6) =     7.64264 eV ==== 
     psi = 0.040*[#   1]+0.040*[#   5]+0.002*[#   3]+0.002*[#   4]+0.002*[#   7]
          +0.002*[#   8]
    |psi|^2 = 0.089
==== e(   7) =     8.08470 eV ==== 
     psi = 0.271*[#   1]+0.271*[#   5]+0.055*[#   3]+0.055*[#   4]+0.055*[#   7]
          +0.055*[#   8]
    |psi|^2 = 0.764
==== e(   8) =     8.49194 eV ==== 
     psi = 0.002*[#   2]+0.002*[#   6]
    |psi|^2 = 0.004

 k =   0.0833333333  0.5292377468  0.0000000000
==== e(   1) =   -17.17659 eV ==== 
     psi = 0.238*[#   1]+0.238*[#   5]+0.127*[#   3]+0.127*[#   4]+0.127*[#   7]
          +0.127*[#   8]
    |psi|^2 = 0.986
==== e(   2) =   -15.11968 eV ==== 
     psi = 0.171*[#   3]+0.171*[#   4]+0.171*[#   7]+0.171*[#   8]+0.151*[#   1]
          +0.151*[#   5]
    |psi|^2 = 0.986
==== e(   3) =    -9.12531 eV ==== 
     psi = 0.241*[#   3]+0.241*[#   4]+0.241*[#   7]+0.241*[#   8]+0.016*[#   1]
          +0.016*[#   5]
    |psi|^2 = 0.995
==== e(   4) =    -4.56509 eV ==== 
     psi = 0.498*[#   2]+0.498*[#   6]
    |psi|^2 = 0.997
==== e(   5) =     0.33985 eV ==== 
     psi = 0.472*[#   2]+0.472*[#   6]
    |psi|^2 = 0.944
==== e(   6) =     7.97843 eV ==== 
     psi = 0.308*[#   1]+0.308*[#   5]+0.047*[#   3]+0.047*[#   4]+0.047*[#   7]
          +0.047*[#   8]
    |psi|^2 = 0.806
==== e(   7) =     8.58367 eV ==== 
     psi = 0.013*[#   1]+0.013*[#   5]+0.007*[#   3]+0.007*[#   4]+0.007*[#   7]
          +0.007*[#   8]
    |psi|^2 = 0.053
==== e(   8) =     9.36033 eV ==== 
     psi = 0.002*[#   2]+0.002*[#   6]
    |psi|^2 = 0.005

 k =   0.0833333333  0.5613127617  0.0000000000
==== e(   1) =   -16.60403 eV ==== 
     psi = 0.263*[#   1]+0.263*[#   5]+0.116*[#   3]+0.116*[#   4]+0.116*[#   7]
          +0.116*[#   8]
    |psi|^2 = 0.990
==== e(   2) =   -15.74956 eV ==== 
     psi = 0.182*[#   3]+0.182*[#   4]+0.182*[#   7]+0.182*[#   8]+0.126*[#   1]
          +0.126*[#   5]
    |psi|^2 = 0.982
==== e(   3) =    -9.16674 eV ==== 
     psi = 0.241*[#   3]+0.241*[#   4]+0.241*[#   7]+0.241*[#   8]+0.016*[#   1]
          +0.016*[#   5]
    |psi|^2 = 0.995
==== e(   4) =    -4.29672 eV ==== 
     psi = 0.499*[#   2]+0.499*[#   6]
    |psi|^2 = 0.998
==== e(   5) =     0.00696 eV ==== 
     psi = 0.472*[#   2]+0.472*[#   6]
    |psi|^2 = 0.944
==== e(   6) =     7.98352 eV ==== 
     psi = 0.324*[#   1]+0.324*[#   5]+0.050*[#   3]+0.050*[#   4]+0.050*[#   7]
          +0.050*[#   8]
    |psi|^2 = 0.848
==== e(   7) =     9.46605 eV ==== 
     psi = 0.002*[#   1]+0.002*[#   5]+0.002*[#   3]+0.002*[#   4]+0.002*[#   7]
          +0.002*[#   8]
    |psi|^2 = 0.012
==== e(   8) =    10.26160 eV ==== 
     psi = 0.004*[#   2]+0.004*[#   6]
    |psi|^2 = 0.007

 k =   0.1111111111  0.1924500897  0.0000000000
==== e(   1) =   -21.59493 eV ==== 
     psi = 0.373*[#   1]+0.373*[#   5]+0.059*[#   3]+0.059*[#   4]+0.059*[#   7]
          +0.059*[#   8]
    |psi|^2 = 0.980
==== e(   2) =    -9.29537 eV ==== 
     psi = 0.481*[#   2]+0.481*[#   6]
    |psi|^2 = 0.963
==== e(   3) =    -7.54964 eV ==== 
     psi = 0.224*[#   3]+0.224*[#   4]+0.224*[#   7]+0.224*[#   8]+0.051*[#   1]
          +0.051*[#   5]
    |psi|^2 = 0.997
==== e(   4) =    -6.71002 eV ==== 
     psi = 0.240*[#   3]+0.240*[#   4]+0.240*[#   7]+0.240*[#   8]+0.015*[#   1]
          +0.015*[#   5]
    |psi|^2 = 0.991
==== e(   5) =     2.26084 eV ==== 
     psi = 0.012*[#   3]+0.012*[#   4]+0.012*[#   7]+0.012*[#   8]
    |psi|^2 = 0.047
==== e(   6) =     2.97023 eV ==== 
     psi = 0.006*[#   2]+0.006*[#   6]
    |psi|^2 = 0.012
==== e(   7) =     3.10509 eV ==== 
     psi = 0.001*[#   3]+0.001*[#   4]+0.001*[#   7]+0.001*[#   8]
    |psi|^2 = 0.005
==== e(   8) =     4.10086 eV ==== 
     psi = 0.005*[#   2]+0.005*[#   6]
    |psi|^2 = 0.010

 k =   0.1111111111  0.2245251047  0.0000000000
==== e(   1) =   -21.33893 eV ==== 
     psi = 0.354*[#   1]+0.354*[#   5]+0.068*[#   3]+0.068*[#   4]+0.068*[#   7]
          +0.068*[#   8]
    |psi|^2 = 0.979
==== e(   2) =    -8.98245 eV ==== 
     psi = 0.484*[#   2]+0.484*[#   6]
    |psi|^2 = 0.968
==== e(   3) =    -8.12692 eV ==== 
     psi = 0.219*[#   3]+0.219*[#   4]+0.219*[#   7]+0.219*[#   8]+0.061*[#   1]
          +0.061*[#   5]
    |psi|^2 = 0.997
==== e(   4) =    -7.14357 eV ==== 
     psi = 0.238*[#   3]+0.238*[#   4]+0.238*[#   7]+0.238*[#   8]+0.019*[#   1]
          +0.019*[#   5]
    |psi|^2 = 0.991
==== e(   5) =     2.61796 eV ==== 
     psi = 0.011*[#   3]+0.011*[#   4]+0.011*[#   7]+0.011*[#   8]
    |psi|^2 = 0.046
==== e(   6) =     3.33224 eV ==== 
     psi = 0.005*[#   2]+0.005*[#   6]
    |psi|^2 = 0.010
==== e(   7) =     3.47012 eV ==== 
     psi = 0.001*[#   3]+0.001*[#   4]+0.001*[#   7]+0.001*[#   8]
    |psi|^2 = 0.004
==== e(   8) =     4.46162 eV ==== 
     psi = 0.004*[#   2]+0.004*[#   6]
    |psi|^2 = 0.008

 k =   0.1111111111  0.2566001196  0.0000000000
==== e(   1) =   -21.04439 eV ==== 
     psi = 0.336*[#   1]+0.336*[#   5]+0.077*[#   3]+0.077*[#   4]+0.077*[#   7]
          +0.077*[#   8]
    |psi|^2 = 0.979
==== e(   2) =    -8.77263 eV ==== 
     psi = 0.213*[#   3]+0.213*[#   4]+0.213*[#   7]+0.213*[#   8]+0.072*[#   1]
          +0.072*[#   5]
    |psi|^2 = 0.996
==== e(   3) =    -8.62425 eV ==== 
     psi = 0.487*[#   2]+0.487*[#   6]
    |psi|^2 = 0.974
==== e(   4) =    -7.55305 eV ==== 
     psi = 0.237*[#   3]+0.237*[#   4]+0.237*[#   7]+0.237*[#   8]+0.021*[#   1]
          +0.021*[#   5]
    |psi|^2 = 0.991
==== e(   5) =     3.02970 eV ==== 
     psi = 0.011*[#   3]+0.011*[#   4]+0.011*[#   7]+0.011*[#   8]
    |psi|^2 = 0.043
==== e(   6) =     3.74919 eV ==== 
     psi = 0.004*[#   2]+0.004*[#   6]
    |psi|^2 = 0.008
==== e(   7) =     3.89129 eV ==== 

    |psi|^2 = 0.004
==== e(   8) =     4.87673 eV ==== 
     psi = 0.003*[#   2]+0.003*[#   6]
    |psi|^2 = 0.007

 k =   0.1111111111  0.2886751346  0.0000000000
==== e(   1) =   -20.71172 eV ==== 
     psi = 0.319*[#   1]+0.319*[#   5]+0.085*[#   3]+0.085*[#   4]+0.085*[#   7]
          +0.085*[#   8]
    |psi|^2 = 0.979
==== e(   2) =    -9.47243 eV ==== 
     psi = 0.207*[#   3]+0.207*[#   4]+0.207*[#   7]+0.207*[#   8]+0.084*[#   1]
          +0.084*[#   5]
    |psi|^2 = 0.994
==== e(   3) =    -8.22241 eV ==== 
     psi = 0.490*[#   2]+0.490*[#   6]
    |psi|^2 = 0.979
==== e(   4) =    -7.92802 eV ==== 
     psi = 0.237*[#   3]+0.237*[#   4]+0.237*[#   7]+0.237*[#   8]+0.023*[#   1]
          +0.023*[#   5]
    |psi|^2 = 0.992
==== e(   5) =     3.49584 eV ==== 
     psi = 0.009*[#   3]+0.009*[#   4]+0.009*[#   7]+0.009*[#   8]
    |psi|^2 = 0.038
==== e(   6) =     4.21973 eV ==== 
     psi = 0.004*[#   2]+0.004*[#   6]
    |psi|^2 = 0.008
==== e(   7) =     4.36858 eV ==== 

    |psi|^2 = 0.003
==== e(   8) =     5.34172 eV ==== 
     psi = 0.006*[#   2]+0.006*[#   6]
    |psi|^2 = 0.012

 k =   0.1111111111  0.3207501495  0.0000000000
==== e(   1) =   -20.34140 eV ==== 
     psi = 0.303*[#   1]+0.303*[#   5]+0.093*[#   3]+0.093*[#   4]+0.093*[#   7]
          +0.093*[#   8]
    |psi|^2 = 0.979
==== e(   2) =   -10.20834 eV ==== 
     psi = 0.201*[#   3]+0.201*[#   4]+0.201*[#   7]+0.201*[#   8]+0.095*[#   1]
          +0.095*[#   5]
    |psi|^2 = 0.993
==== e(   3) =    -8.26620 eV ==== 
     psi = 0.236*[#   3]+0.236*[#   4]+0.236*[#   7]+0.236*[#   8]+0.024*[#   1]
          +0.024*[#   5]
    |psi|^2 = 0.993
==== e(   4) =    -7.77923 eV ==== 
     psi = 0.492*[#   2]+0.492*[#   6]
    |psi|^2 = 0.984
==== e(   5) =     4.01612 eV ==== 
     psi = 0.008*[#   3]+0.008*[#   4]+0.008*[#   7]+0.008*[#   8]
    |psi|^2 = 0.032
==== e(   6) =     4.73170 eV ==== 
     psi = 0.016*[#   2]+0.016*[#   6]
    |psi|^2 = 0.032
==== e(   7) =     4.90198 eV ==== 

    |psi|^2 = 0.003
==== e(   8) =     5.33302 eV ==== 
     psi = 0.443*[#   2]+0.443*[#   6]
    |psi|^2 = 0.886

 k =   0.1111111111  0.3528251645  0.0000000000
==== e(   1) =   -19.93401 eV ==== 
     psi = 0.288*[#   1]+0.288*[#   5]+0.101*[#   3]+0.101*[#   4]+0.101*[#   7]
          +0.101*[#   8]
    |psi|^2 = 0.979
==== e(   2) =   -10.96448 eV ==== 
     psi = 0.195*[#   3]+0.195*[#   4]+0.195*[#   7]+0.195*[#   8]+0.107*[#   1]
          +0.107*[#   5]
    |psi|^2 = 0.992
==== e(   3) =    -8.56710 eV ==== 
     psi = 0.236*[#   3]+0.236*[#   4]+0.236*[#   7]+0.236*[#   8]+0.025*[#   1]
          +0.025*[#   5]
    |psi|^2 = 0.994
==== e(   4) =    -7.29791 eV ==== 
     psi = 0.494*[#   2]+0.494*[#   6]
    |psi|^2 = 0.988
==== e(   5) =     4.45607 eV ==== 
     psi = 0.460*[#   2]+0.460*[#   6]
    |psi|^2 = 0.920
==== e(   6) =     4.59017 eV ==== 
     psi = 0.006*[#   3]+0.006*[#   4]+0.006*[#   7]+0.006*[#   8]
    |psi|^2 = 0.025
==== e(   7) =     5.35414 eV ==== 
     psi = 0.014*[#   2]+0.014*[#   6]
    |psi|^2 = 0.028
==== e(   8) =     5.49145 eV ==== 

    |psi|^2 = 0.002

 k =   0.1111111111  0.3849001795  0.0000000000
==== e(   1) =   -19.49027 eV ==== 
     psi = 0.274*[#   1]+0.274*[#   5]+0.108*[#   3]+0.108*[#   4]+0.108*[#   7]
          +0.108*[#   8]
    |psi|^2 = 0.980
==== e(   2) =   -11.72832 eV ==== 
     psi = 0.189*[#   3]+0.189*[#   4]+0.189*[#   7]+0.189*[#   8]+0.118*[#   1]
          +0.118*[#   5]
    |psi|^2 = 0.992
==== e(   3) =    -8.83016 eV ==== 
     psi = 0.236*[#   3]+0.236*[#   4]+0.236*[#   7]+0.236*[#   8]+0.025*[#   1]
          +0.025*[#   5]
    |psi|^2 = 0.994
==== e(   4) =    -6.78327 eV ==== 
     psi = 0.496*[#   2]+0.496*[#   6]
    |psi|^2 = 0.992
==== e(   5) =     3.61497 eV ==== 
     psi = 0.470*[#   2]+0.470*[#   6]
    |psi|^2 = 0.941
==== e(   6) =     5.21749 eV ==== 
     psi = 0.005*[#   3]+0.005*[#   4]+0.005*[#   7]+0.005*[#   8]
    |psi|^2 = 0.019
==== e(   7) =     5.98160 eV ==== 
     psi = 0.004*[#   2]+0.004*[#   6]
    |psi|^2 = 0.008
==== e(   8) =     6.13692 eV ==== 

    |psi|^2 = 0.001

 k =   0.1111111111  0.4169751944  0.0000000000
==== e(   1) =   -19.01111 eV ==== 
     psi = 0.262*[#   1]+0.262*[#   5]+0.114*[#   3]+0.114*[#   4]+0.114*[#   7]
          +0.114*[#   8]
    |psi|^2 = 0.981
==== e(   2) =   -12.49014 eV ==== 
     psi = 0.184*[#   3]+0.184*[#   4]+0.184*[#   7]+0.184*[#   8]+0.128*[#   1]
          +0.128*[#   5]
    |psi|^2 = 0.991
==== e(   3) =    -9.05461 eV ==== 
     psi = 0.236*[#   3]+0.236*[#   4]+0.236*[#   7]+0.236*[#   8]+0.026*[#   1]
          +0.026*[#   5]
    |psi|^2 = 0.994
==== e(   4) =    -6.24274 eV ==== 
     psi = 0.497*[#   2]+0.497*[#   6]
    |psi|^2 = 0.994
==== e(   5) =     2.77724 eV ==== 
     psi = 0.472*[#   2]+0.472*[#   6]
    |psi|^2 = 0.944
==== e(   6) =     5.89732 eV ==== 
     psi = 0.003*[#   3]+0.003*[#   4]+0.003*[#   7]+0.003*[#   8]
    |psi|^2 = 0.014
==== e(   7) =     6.66985 eV ==== 
     psi = 0.003*[#   2]+0.003*[#   6]
    |psi|^2 = 0.005
==== e(   8) =     6.83826 eV ==== 

    |psi|^2 = 0.001

 k =   0.1111111111  0.4490502094  0.0000000000
==== e(   1) =   -18.49775 eV ==== 
     psi = 0.251*[#   1]+0.251*[#   5]+0.120*[#   3]+0.120*[#   4]+0.120*[#   7]
          +0.120*[#   8]
    |psi|^2 = 0.982
==== e(   2) =   -13.24219 eV ==== 
     psi = 0.179*[#   3]+0.179*[#   4]+0.179*[#   7]+0.179*[#   8]+0.137*[#   1]
          +0.137*[#   5]
    |psi|^2 = 0.990
==== e(   3) =    -9.23959 eV ==== 
     psi = 0.236*[#   3]+0.236*[#   4]+0.236*[#   7]+0.236*[#   8]+0.026*[#   1]
          +0.026*[#   5]
    |psi|^2 = 0.995
==== e(   4) =    -5.68868 eV ==== 
     psi = 0.498*[#   2]+0.498*[#   6]
    |psi|^2 = 0.995
==== e(   5) =     1.96916 eV ==== 
     psi = 0.473*[#   2]+0.473*[#   6]
    |psi|^2 = 0.946
==== e(   6) =     6.62835 eV ==== 
     psi = 0.002*[#   3]+0.002*[#   4]+0.002*[#   7]+0.002*[#   8]+0.001*[#   1]
          +0.001*[#   5]
    |psi|^2 = 0.010
==== e(   7) =     7.41131 eV ==== 
     psi = 0.002*[#   2]+0.002*[#   6]
    |psi|^2 = 0.004
==== e(   8) =     7.59498 eV ==== 

    |psi|^2 = 0.002

 k =   0.1111111111  0.4811252243  0.0000000000
==== e(   1) =   -17.95212 eV ==== 
     psi = 0.241*[#   1]+0.241*[#   5]+0.125*[#   3]+0.125*[#   4]+0.125*[#   7]
          +0.125*[#   8]
    |psi|^2 = 0.983
==== e(   2) =   -13.97781 eV ==== 
     psi = 0.174*[#   3]+0.174*[#   4]+0.174*[#   7]+0.174*[#   8]+0.145*[#   1]
          +0.145*[#   5]
    |psi|^2 = 0.989
[...]
          +0.130*[#   5]
    |psi|^2 = 0.995
==== e(   3) =   -10.58773 eV ==== 
     psi = 0.226*[#   3]+0.226*[#   4]+0.226*[#   7]+0.226*[#   8]+0.043*[#   1]
          +0.043*[#   5]
    |psi|^2 = 0.989
==== e(   4) =    -5.97547 eV ==== 
     psi = 0.497*[#   2]+0.497*[#   6]
    |psi|^2 = 0.995
==== e(   5) =     2.76671 eV ==== 
     psi = 0.486*[#   2]+0.486*[#   6]
    |psi|^2 = 0.973
==== e(   6) =     6.19932 eV ==== 
     psi = 0.003*[#   3]+0.003*[#   4]+0.003*[#   7]+0.003*[#   8]
    |psi|^2 = 0.014
==== e(   7) =     6.93223 eV ==== 

    |psi|^2 = 0.001
==== e(   8) =     7.14787 eV ==== 

    |psi|^2 = 0.001

 k =   0.2222222222  0.4169751944  0.0000000000
==== e(   1) =   -18.33291 eV ==== 
     psi = 0.245*[#   1]+0.245*[#   5]+0.123*[#   3]+0.123*[#   4]+0.123*[#   7]
          +0.123*[#   8]
    |psi|^2 = 0.982
==== e(   2) =   -12.25994 eV ==== 
     psi = 0.180*[#   3]+0.180*[#   4]+0.180*[#   7]+0.180*[#   8]+0.138*[#   1]
          +0.138*[#   5]
    |psi|^2 = 0.994
==== e(   3) =   -11.00086 eV ==== 
     psi = 0.224*[#   3]+0.224*[#   4]+0.224*[#   7]+0.224*[#   8]+0.046*[#   1]
          +0.046*[#   5]
    |psi|^2 = 0.989
==== e(   4) =    -5.44223 eV ==== 
     psi = 0.498*[#   2]+0.498*[#   6]
    |psi|^2 = 0.995
==== e(   5) =     2.09103 eV ==== 
     psi = 0.488*[#   2]+0.488*[#   6]
    |psi|^2 = 0.975
==== e(   6) =     6.87599 eV ==== 
     psi = 0.002*[#   3]+0.002*[#   4]+0.002*[#   7]+0.002*[#   8]
    |psi|^2 = 0.010
==== e(   7) =     7.59240 eV ==== 

    |psi|^2 = 0.001
==== e(   8) =     7.84926 eV ==== 

    |psi|^2 = 0.001

 k =   0.2222222222  0.4490502094  0.0000000000
==== e(   1) =   -17.82872 eV ==== 
     psi = 0.235*[#   1]+0.235*[#   5]+0.128*[#   3]+0.128*[#   4]+0.128*[#   7]
          +0.128*[#   8]
    |psi|^2 = 0.984
==== e(   2) =   -12.85847 eV ==== 
     psi = 0.177*[#   3]+0.177*[#   4]+0.177*[#   7]+0.177*[#   8]+0.143*[#   1]
          +0.143*[#   5]
    |psi|^2 = 0.993
==== e(   3) =   -11.29299 eV ==== 
     psi = 0.222*[#   3]+0.222*[#   4]+0.222*[#   7]+0.222*[#   8]+0.051*[#   1]
          +0.051*[#   5]
    |psi|^2 = 0.990
==== e(   4) =    -4.89046 eV ==== 
     psi = 0.498*[#   2]+0.498*[#   6]
    |psi|^2 = 0.996
==== e(   5) =     1.41802 eV ==== 
     psi = 0.488*[#   2]+0.488*[#   6]
    |psi|^2 = 0.977
==== e(   6) =     7.60262 eV ==== 
     psi = 0.002*[#   3]+0.002*[#   4]+0.002*[#   7]+0.002*[#   8]+0.001*[#   1]
          +0.001*[#   5]
    |psi|^2 = 0.008
==== e(   7) =     8.27591 eV ==== 

    |psi|^2 = 0.001
==== e(   8) =     8.60642 eV ==== 

    |psi|^2 = 0.001

 k =   0.2222222222  0.4811252243  0.0000000000
==== e(   1) =   -17.29482 eV ==== 
     psi = 0.227*[#   1]+0.227*[#   5]+0.133*[#   3]+0.133*[#   4]+0.133*[#   7]
          +0.133*[#   8]
    |psi|^2 = 0.985
==== e(   2) =   -13.49916 eV ==== 
     psi = 0.174*[#   3]+0.174*[#   4]+0.174*[#   7]+0.174*[#   8]+0.147*[#   1]
          +0.147*[#   5]
    |psi|^2 = 0.991
==== e(   3) =   -11.49347 eV ==== 
     psi = 0.220*[#   3]+0.220*[#   4]+0.220*[#   7]+0.220*[#   8]+0.055*[#   1]
          +0.055*[#   5]
    |psi|^2 = 0.990
==== e(   4) =    -4.33695 eV ==== 
     psi = 0.498*[#   2]+0.498*[#   6]
    |psi|^2 = 0.996
==== e(   5) =     0.76663 eV ==== 
     psi = 0.489*[#   2]+0.489*[#   6]
    |psi|^2 = 0.977
==== e(   6) =     8.37680 eV ==== 
     psi = 0.002*[#   1]+0.002*[#   5]+0.001*[#   3]+0.001*[#   4]+0.001*[#   7]
          +0.001*[#   8]
    |psi|^2 = 0.008
==== e(   7) =     8.93449 eV ==== 

    |psi|^2 = 0.002
==== e(   8) =     9.41917 eV ==== 

    |psi|^2 = 0.001

 k =   0.2222222222  0.5132002393  0.0000000000
==== e(   1) =   -16.73634 eV ==== 
     psi = 0.222*[#   1]+0.222*[#   5]+0.136*[#   3]+0.136*[#   4]+0.136*[#   7]
          +0.136*[#   8]
    |psi|^2 = 0.987
==== e(   2) =   -14.14818 eV ==== 
     psi = 0.172*[#   3]+0.172*[#   4]+0.172*[#   7]+0.172*[#   8]+0.150*[#   1]
          +0.150*[#   5]
    |psi|^2 = 0.990
==== e(   3) =   -11.62585 eV ==== 
     psi = 0.218*[#   3]+0.218*[#   4]+0.218*[#   7]+0.218*[#   8]+0.058*[#   1]
          +0.058*[#   5]
    |psi|^2 = 0.990
==== e(   4) =    -3.81548 eV ==== 
     psi = 0.498*[#   2]+0.498*[#   6]
    |psi|^2 = 0.996
==== e(   5) =     0.17301 eV ==== 
     psi = 0.489*[#   2]+0.489*[#   6]
    |psi|^2 = 0.977
==== e(   6) =     9.19439 eV ==== 
     psi = 0.004*[#   1]+0.004*[#   5]
    |psi|^2 = 0.012
==== e(   7) =     9.44707 eV ==== 
     psi = 0.003*[#   2]+0.003*[#   6]
    |psi|^2 = 0.005
==== e(   8) =    10.28708 eV ==== 

    |psi|^2 = 0.002

 k =   0.2222222222  0.5452752542  0.0000000000
==== e(   1) =   -16.17069 eV ==== 
     psi = 0.225*[#   1]+0.225*[#   5]+0.135*[#   3]+0.135*[#   4]+0.135*[#   7]
          +0.135*[#   8]
    |psi|^2 = 0.989
==== e(   2) =   -14.77281 eV ==== 
     psi = 0.175*[#   3]+0.175*[#   4]+0.175*[#   7]+0.175*[#   8]+0.145*[#   1]
          +0.145*[#   5]
    |psi|^2 = 0.987
==== e(   3) =   -11.70196 eV ==== 
     psi = 0.218*[#   3]+0.218*[#   4]+0.218*[#   7]+0.218*[#   8]+0.060*[#   1]
          +0.060*[#   5]
    |psi|^2 = 0.991
==== e(   4) =    -3.40015 eV ==== 
     psi = 0.498*[#   2]+0.498*[#   6]
    |psi|^2 = 0.996
==== e(   5) =    -0.28661 eV ==== 
     psi = 0.488*[#   2]+0.488*[#   6]
    |psi|^2 = 0.976
==== e(   6) =     9.69943 eV ==== 
     psi = 0.005*[#   2]+0.005*[#   6]
    |psi|^2 = 0.010
==== e(   7) =    10.04713 eV ==== 
     psi = 0.008*[#   1]+0.008*[#   5]+0.001*[#   3]+0.001*[#   4]+0.001*[#   7]
          +0.001*[#   8]
    |psi|^2 = 0.021
==== e(   8) =    11.20782 eV ==== 
     psi = 0.003*[#   1]+0.003*[#   5]
    |psi|^2 = 0.010

 k =   0.2222222222  0.5773502692  0.0000000000
==== e(   1) =   -15.77962 eV ==== 
     psi = 0.259*[#   1]+0.259*[#   5]+0.119*[#   3]+0.119*[#   4]+0.119*[#   7]
          +0.119*[#   8]
    |psi|^2 = 0.993
==== e(   2) =   -15.18422 eV ==== 
     psi = 0.191*[#   3]+0.191*[#   4]+0.191*[#   7]+0.191*[#   8]+0.110*[#   1]
          +0.110*[#   5]
    |psi|^2 = 0.983
==== e(   3) =   -11.72686 eV ==== 
     psi = 0.217*[#   3]+0.217*[#   4]+0.217*[#   7]+0.217*[#   8]+0.061*[#   1]
          +0.061*[#   5]
    |psi|^2 = 0.991
==== e(   4) =    -3.22931 eV ==== 
     psi = 0.498*[#   2]+0.498*[#   6]
    |psi|^2 = 0.997
==== e(   5) =    -0.47239 eV ==== 
     psi = 0.488*[#   2]+0.488*[#   6]
    |psi|^2 = 0.976
==== e(   6) =     9.76173 eV ==== 
     psi = 0.006*[#   2]+0.006*[#   6]
    |psi|^2 = 0.011
==== e(   7) =    10.84086 eV ==== 
     psi = 0.015*[#   1]+0.015*[#   5]+0.003*[#   3]+0.003*[#   4]+0.003*[#   7]
          +0.003*[#   8]
    |psi|^2 = 0.042
==== e(   8) =    11.01431 eV ==== 
     psi = 0.021*[#   1]+0.021*[#   5]+0.003*[#   3]+0.003*[#   4]+0.003*[#   7]
          +0.003*[#   8]
    |psi|^2 = 0.055

 k =   0.2500000000  0.4330127019  0.0000000000
==== e(   1) =   -17.84773 eV ==== 
     psi = 0.235*[#   1]+0.235*[#   5]+0.128*[#   3]+0.128*[#   4]+0.128*[#   7]
          +0.128*[#   8]
    |psi|^2 = 0.984
==== e(   2) =   -12.64101 eV ==== 
     psi = 0.173*[#   3]+0.173*[#   4]+0.173*[#   7]+0.173*[#   8]+0.151*[#   1]
          +0.151*[#   5]
    |psi|^2 = 0.995
==== e(   3) =   -11.51307 eV ==== 
     psi = 0.225*[#   3]+0.225*[#   4]+0.225*[#   7]+0.225*[#   8]+0.044*[#   1]
          +0.044*[#   5]
    |psi|^2 = 0.988
==== e(   4) =    -4.90253 eV ==== 
     psi = 0.498*[#   2]+0.498*[#   6]
    |psi|^2 = 0.996
==== e(   5) =     1.46714 eV ==== 
     psi = 0.490*[#   2]+0.490*[#   6]
    |psi|^2 = 0.979
==== e(   6) =     7.57569 eV ==== 
     psi = 0.002*[#   3]+0.002*[#   4]+0.002*[#   7]+0.002*[#   8]
    |psi|^2 = 0.008
==== e(   7) =     8.24009 eV ==== 

    |psi|^2 = 0.000
==== e(   8) =     8.57840 eV ==== 

    |psi|^2 = 0.001

 k =   0.2500000000  0.4650877168  0.0000000000
==== e(   1) =   -17.33226 eV ==== 
     psi = 0.227*[#   1]+0.227*[#   5]+0.133*[#   3]+0.133*[#   4]+0.133*[#   7]
          +0.133*[#   8]
    |psi|^2 = 0.985
==== e(   2) =   -13.12424 eV ==== 
     psi = 0.170*[#   3]+0.170*[#   4]+0.170*[#   7]+0.170*[#   8]+0.158*[#   1]
          +0.158*[#   5]
    |psi|^2 = 0.994
==== e(   3) =   -11.88141 eV ==== 
     psi = 0.224*[#   3]+0.224*[#   4]+0.224*[#   7]+0.224*[#   8]+0.047*[#   1]
          +0.047*[#   5]
    |psi|^2 = 0.988
==== e(   4) =    -4.34857 eV ==== 
     psi = 0.498*[#   2]+0.498*[#   6]
    |psi|^2 = 0.996
==== e(   5) =     0.84537 eV ==== 
     psi = 0.491*[#   2]+0.491*[#   6]
    |psi|^2 = 0.982
==== e(   6) =     8.32304 eV ==== 
     psi = 0.002*[#   1]+0.002*[#   5]+0.001*[#   3]+0.001*[#   4]+0.001*[#   7]
          +0.001*[#   8]
    |psi|^2 = 0.008
==== e(   7) =     8.84726 eV ==== 

    |psi|^2 = 0.000
==== e(   8) =     9.36315 eV ==== 

    |psi|^2 = 0.001

 k =   0.2500000000  0.4971627318  0.0000000000
==== e(   1) =   -16.79036 eV ==== 
     psi = 0.220*[#   1]+0.220*[#   5]+0.137*[#   3]+0.137*[#   4]+0.137*[#   7]
          +0.137*[#   8]
    |psi|^2 = 0.986
==== e(   2) =   -13.69338 eV ==== 
     psi = 0.169*[#   3]+0.169*[#   4]+0.169*[#   7]+0.169*[#   8]+0.159*[#   1]
          +0.159*[#   5]
    |psi|^2 = 0.992
==== e(   3) =   -12.11158 eV ==== 
     psi = 0.221*[#   3]+0.221*[#   4]+0.221*[#   7]+0.221*[#   8]+0.053*[#   1]
          +0.053*[#   5]
    |psi|^2 = 0.988
==== e(   4) =    -3.80020 eV ==== 
     psi = 0.498*[#   2]+0.498*[#   6]
    |psi|^2 = 0.995
==== e(   5) =     0.24541 eV ==== 
     psi = 0.491*[#   2]+0.491*[#   6]
    |psi|^2 = 0.983
==== e(   6) =     9.11402 eV ==== 
     psi = 0.004*[#   1]+0.004*[#   5]
    |psi|^2 = 0.011
==== e(   7) =     9.27538 eV ==== 
     psi = 0.001*[#   2]+0.001*[#   6]
    |psi|^2 = 0.002
==== e(   8) =    10.20316 eV ==== 

    |psi|^2 = 0.002

 k =   0.2500000000  0.5292377468  0.0000000000
==== e(   1) =   -16.23124 eV ==== 
     psi = 0.217*[#   1]+0.217*[#   5]+0.138*[#   3]+0.138*[#   4]+0.138*[#   7]
          +0.138*[#   8]
    |psi|^2 = 0.988
==== e(   2) =   -14.29396 eV ==== 
     psi = 0.169*[#   3]+0.169*[#   4]+0.169*[#   7]+0.169*[#   8]+0.156*[#   1]
          +0.156*[#   5]
    |psi|^2 = 0.990
==== e(   3) =   -12.24420 eV ==== 
     psi = 0.218*[#   3]+0.218*[#   4]+0.218*[#   7]+0.218*[#   8]+0.058*[#   1]
          +0.058*[#   5]
    |psi|^2 = 0.989
==== e(   4) =    -3.30189 eV ==== 
     psi = 0.498*[#   2]+0.498*[#   6]
    |psi|^2 = 0.996
==== e(   5) =    -0.28785 eV ==== 
     psi = 0.491*[#   2]+0.491*[#   6]
    |psi|^2 = 0.983
==== e(   6) =     9.44506 eV ==== 
     psi = 0.002*[#   2]+0.002*[#   6]
    |psi|^2 = 0.005
==== e(   7) =     9.94111 eV ==== 
     psi = 0.007*[#   1]+0.007*[#   5]+0.001*[#   3]+0.001*[#   4]+0.001*[#   7]
          +0.001*[#   8]
    |psi|^2 = 0.019
==== e(   8) =    11.09771 eV ==== 
     psi = 0.001*[#   1]+0.001*[#   5]
    |psi|^2 = 0.003

 k =   0.2500000000  0.5613127617  0.0000000000
==== e(   1) =   -15.70309 eV ==== 
     psi = 0.232*[#   1]+0.232*[#   5]+0.132*[#   3]+0.132*[#   4]+0.132*[#   7]
          +0.132*[#   8]
    |psi|^2 = 0.991
==== e(   2) =   -14.84860 eV ==== 
     psi = 0.177*[#   3]+0.177*[#   4]+0.177*[#   7]+0.177*[#   8]+0.139*[#   1]
          +0.139*[#   5]
    |psi|^2 = 0.987
==== e(   3) =   -12.30547 eV ==== 
     psi = 0.217*[#   3]+0.217*[#   4]+0.217*[#   7]+0.217*[#   8]+0.061*[#   1]
          +0.061*[#   5]
    |psi|^2 = 0.989
==== e(   4) =    -2.96322 eV ==== 
     psi = 0.498*[#   2]+0.498*[#   6]
    |psi|^2 = 0.996
==== e(   5) =    -0.64420 eV ==== 
     psi = 0.491*[#   2]+0.491*[#   6]
    |psi|^2 = 0.983
==== e(   6) =     9.48029 eV ==== 
     psi = 0.003*[#   2]+0.003*[#   6]
    |psi|^2 = 0.006
==== e(   7) =    10.78545 eV ==== 
     psi = 0.013*[#   1]+0.013*[#   5]+0.002*[#   3]+0.002*[#   4]+0.002*[#   7]
          +0.002*[#   8]
    |psi|^2 = 0.037
==== e(   8) =    11.65089 eV ==== 
     psi = 0.025*[#   1]+0.025*[#   5]+0.005*[#   3]+0.005*[#   4]+0.005*[#   7]
          +0.005*[#   8]
    |psi|^2 = 0.070

 k =   0.2777777778  0.4811252243  0.0000000000
==== e(   1) =   -16.80852 eV ==== 
     psi = 0.219*[#   1]+0.219*[#   5]+0.137*[#   3]+0.137*[#   4]+0.137*[#   7]
          +0.137*[#   8]
    |psi|^2 = 0.986
==== e(   2) =   -13.45414 eV ==== 
     psi = 0.173*[#   1]+0.173*[#   5]+0.162*[#   3]+0.162*[#   4]+0.162*[#   7]
          +0.162*[#   8]
    |psi|^2 = 0.994
==== e(   3) =   -12.36150 eV ==== 
     psi = 0.226*[#   3]+0.226*[#   4]+0.226*[#   7]+0.226*[#   8]+0.040*[#   1]
          +0.040*[#   5]
    |psi|^2 = 0.986
==== e(   4) =    -3.79582 eV ==== 
     psi = 0.498*[#   2]+0.498*[#   6]
    |psi|^2 = 0.995
==== e(   5) =     0.27227 eV ==== 
     psi = 0.492*[#   2]+0.492*[#   6]
    |psi|^2 = 0.985
==== e(   6) =     9.08716 eV ==== 
     psi = 0.004*[#   1]+0.004*[#   5]
    |psi|^2 = 0.011
==== e(   7) =     9.21484 eV ==== 

    |psi|^2 = 0.001
==== e(   8) =    10.17515 eV ==== 

    |psi|^2 = 0.001

 k =   0.2777777778  0.5132002393  0.0000000000
==== e(   1) =   -16.26372 eV ==== 
     psi = 0.214*[#   1]+0.214*[#   5]+0.140*[#   3]+0.140*[#   4]+0.140*[#   7]
          +0.140*[#   8]
    |psi|^2 = 0.988
==== e(   2) =   -13.89877 eV ==== 
     psi = 0.177*[#   1]+0.177*[#   5]+0.160*[#   3]+0.160*[#   4]+0.160*[#   7]
          +0.160*[#   8]
    |psi|^2 = 0.993
==== e(   3) =   -12.67026 eV ==== 
     psi = 0.226*[#   3]+0.226*[#   4]+0.226*[#   7]+0.226*[#   8]+0.042*[#   1]
          +0.042*[#   5]
    |psi|^2 = 0.986
==== e(   4) =    -3.25405 eV ==== 
     psi = 0.498*[#   2]+0.498*[#   6]
    |psi|^2 = 0.995
==== e(   5) =    -0.28226 eV ==== 
     psi = 0.493*[#   2]+0.493*[#   6]
    |psi|^2 = 0.987
==== e(   6) =     9.30801 eV ==== 

    |psi|^2 = 0.002
==== e(   7) =     9.88770 eV ==== 
     psi = 0.007*[#   1]+0.007*[#   5]+0.001*[#   3]+0.001*[#   4]+0.001*[#   7]
          +0.001*[#   8]
    |psi|^2 = 0.018
==== e(   8) =    11.04183 eV ==== 

    |psi|^2 = 0.002

 k =   0.2777777778  0.5452752542  0.0000000000
==== e(   1) =   -15.71653 eV ==== 
     psi = 0.216*[#   1]+0.216*[#   5]+0.139*[#   3]+0.139*[#   4]+0.139*[#   7]
          +0.139*[#   8]
    |psi|^2 = 0.990
==== e(   2) =   -14.41904 eV ==== 
     psi = 0.169*[#   1]+0.169*[#   5]+0.163*[#   3]+0.163*[#   4]+0.163*[#   7]
          +0.163*[#   8]
    |psi|^2 = 0.991
==== e(   3) =   -12.82393 eV ==== 
     psi = 0.222*[#   3]+0.222*[#   4]+0.222*[#   7]+0.222*[#   8]+0.048*[#   1]
          +0.048*[#   5]
    |psi|^2 = 0.986
==== e(   4) =    -2.78223 eV ==== 
     psi = 0.498*[#   2]+0.498*[#   6]
    |psi|^2 = 0.995
==== e(   5) =    -0.76113 eV ==== 
     psi = 0.494*[#   2]+0.494*[#   6]
    |psi|^2 = 0.988
==== e(   6) =     9.28619 eV ==== 
     psi = 0.001*[#   2]+0.001*[#   6]
    |psi|^2 = 0.002
==== e(   7) =    10.70920 eV ==== 
     psi = 0.012*[#   1]+0.012*[#   5]+0.002*[#   3]+0.002*[#   4]+0.002*[#   7]
          +0.002*[#   8]
    |psi|^2 = 0.034
==== e(   8) =    11.96050 eV ==== 
     psi = 0.002*[#   1]+0.002*[#   5]
    |psi|^2 = 0.006

 k =   0.2777777778  0.5773502692  0.0000000000
==== e(   1) =   -15.34135 eV ==== 
     psi = 0.239*[#   1]+0.239*[#   5]+0.129*[#   3]+0.129*[#   4]+0.129*[#   7]
          +0.129*[#   8]
    |psi|^2 = 0.993
==== e(   2) =   -14.79120 eV ==== 
     psi = 0.175*[#   3]+0.175*[#   4]+0.175*[#   7]+0.175*[#   8]+0.144*[#   1]
          +0.144*[#   5]
    |psi|^2 = 0.988
==== e(   3) =   -12.86947 eV ==== 
     psi = 0.221*[#   3]+0.221*[#   4]+0.221*[#   7]+0.221*[#   8]+0.051*[#   1]
          +0.051*[#   5]
    |psi|^2 = 0.986
==== e(   4) =    -2.56059 eV ==== 
     psi = 0.498*[#   2]+0.498*[#   6]
    |psi|^2 = 0.995
==== e(   5) =    -0.98502 eV ==== 
     psi = 0.494*[#   2]+0.494*[#   6]
    |psi|^2 = 0.988
==== e(   6) =     9.26847 eV ==== 
     psi = 0.001*[#   2]+0.001*[#   6]
    |psi|^2 = 0.003
==== e(   7) =    11.42953 eV ==== 
     psi = 0.029*[#   1]+0.029*[#   5]+0.006*[#   3]+0.006*[#   4]+0.006*[#   7]
          +0.006*[#   8]
    |psi|^2 = 0.083
==== e(   8) =    11.63799 eV ==== 
     psi = 0.017*[#   1]+0.017*[#   5]+0.004*[#   3]+0.004*[#   4]+0.004*[#   7]
          +0.004*[#   8]
    |psi|^2 = 0.049

 k =   0.3055555556  0.5292377468  0.0000000000
==== e(   1) =   -15.72593 eV ==== 
     psi = 0.212*[#   1]+0.212*[#   5]+0.141*[#   3]+0.141*[#   4]+0.141*[#   7]
          +0.141*[#   8]
    |psi|^2 = 0.990
==== e(   2) =   -14.17710 eV ==== 
     psi = 0.195*[#   1]+0.195*[#   5]+0.151*[#   3]+0.151*[#   4]+0.151*[#   7]
          +0.151*[#   8]
    |psi|^2 = 0.994
==== e(   3) =   -13.09099 eV ==== 
     psi = 0.233*[#   3]+0.233*[#   4]+0.233*[#   7]+0.233*[#   8]+0.027*[#   1]
          +0.027*[#   5]
    |psi|^2 = 0.984
==== e(   4) =    -2.71705 eV ==== 
     psi = 0.497*[#   2]+0.497*[#   6]
    |psi|^2 = 0.995
==== e(   5) =    -0.80358 eV ==== 
     psi = 0.495*[#   2]+0.495*[#   6]
    |psi|^2 = 0.990
==== e(   6) =     9.21784 eV ==== 

    |psi|^2 = 0.001
==== e(   7) =    10.68314 eV ==== 
     psi = 0.012*[#   1]+0.012*[#   5]+0.002*[#   3]+0.002*[#   4]+0.002*[#   7]
          +0.002*[#   8]
    |psi|^2 = 0.033
==== e(   8) =    11.93356 eV ==== 
     psi = 0.002*[#   1]+0.002*[#   5]
    |psi|^2 = 0.005

 k =   0.3055555556  0.5613127617  0.0000000000
==== e(   1) =   -15.21940 eV ==== 
     psi = 0.219*[#   1]+0.219*[#   5]+0.139*[#   3]+0.139*[#   4]+0.139*[#   7]
          +0.139*[#   8]
    |psi|^2 = 0.992
==== e(   2) =   -14.55872 eV ==== 
     psi = 0.193*[#   1]+0.193*[#   5]+0.152*[#   3]+0.152*[#   4]+0.152*[#   7]
          +0.152*[#   8]
    |psi|^2 = 0.992
==== e(   3) =   -13.29741 eV ==== 
     psi = 0.235*[#   3]+0.235*[#   4]+0.235*[#   7]+0.235*[#   8]+0.022*[#   1]
          +0.022*[#   5]
    |psi|^2 = 0.983
==== e(   4) =    -2.26302 eV ==== 
     psi = 0.497*[#   2]+0.497*[#   6]
    |psi|^2 = 0.994
==== e(   5) =    -1.24873 eV ==== 
     psi = 0.495*[#   2]+0.495*[#   6]
    |psi|^2 = 0.991
==== e(   6) =     9.14842 eV ==== 

    |psi|^2 = 0.001
==== e(   7) =    11.46289 eV ==== 
     psi = 0.025*[#   1]+0.025*[#   5]+0.005*[#   3]+0.005*[#   4]+0.005*[#   7]
          +0.005*[#   8]
    |psi|^2 = 0.072
==== e(   8) =    12.19546 eV ==== 
     psi = 0.050*[#   1]+0.050*[#   5]+0.012*[#   3]+0.012*[#   4]+0.012*[#   7]
          +0.012*[#   8]
    |psi|^2 = 0.148

 k =   0.3333333333  0.5773502692  0.0000000000
==== e(   1) =   -14.80680 eV ==== 
     psi = 0.217*[#   1]+0.217*[#   5]+0.140*[#   3]+0.140*[#   4]+0.140*[#   7]
          +0.140*[#   8]
    |psi|^2 = 0.993
==== e(   2) =   -14.80680 eV ==== 
     psi = 0.217*[#   1]+0.217*[#   5]+0.140*[#   3]+0.140*[#   4]+0.140*[#   7]
          +0.140*[#   8]
    |psi|^2 = 0.993
==== e(   3) =   -13.50094 eV ==== 
     psi = 0.245*[#   3]+0.245*[#   4]+0.245*[#   7]+0.245*[#   8]
    |psi|^2 = 0.980
==== e(   4) =    -1.75028 eV ==== 
     psi = 0.497*[#   2]+0.497*[#   6]
    |psi|^2 = 0.993
==== e(   5) =    -1.75028 eV ==== 
     psi = 0.497*[#   2]+0.497*[#   6]
    |psi|^2 = 0.993
==== e(   6) =     9.09716 eV ==== 

    |psi|^2 = 0.000
==== e(   7) =    12.06292 eV ==== 
     psi = 0.058*[#   1]+0.058*[#   5]+0.013*[#   3]+0.013*[#   4]+0.013*[#   7]
          +0.013*[#   8]
    |psi|^2 = 0.169
==== e(   8) =    12.06292 eV ==== 
     psi = 0.058*[#   1]+0.058*[#   5]+0.013*[#   3]+0.013*[#   4]+0.013*[#   7]
          +0.013*[#   8]
    |psi|^2 = 0.169

Lowdin Charges: 

     Atom #   1: total charge =   3.9523, s =  0.8479, 
     Atom #   1: total charge =   3.9523, p =  3.1044, pz=  0.9849, px=  1.0597, py=  1.0597, 
     Atom #   2: total charge =   3.9523, s =  0.8479, 
     Atom #   2: total charge =   3.9523, p =  3.1044, pz=  0.9849, px=  1.0597, py=  1.0597, 
     Spilling Parameter:   0.0119

     PROJWFC      :      6.14s CPU     14.02s WALL


   This run was terminated on:  22:33: 9  28Aug2023            

=------------------------------------------------------------------------------=
   JOB DONE.
=------------------------------------------------------------------------------=
