
     Program PWSCF v.6.7MaX starts on 24Aug2023 at 11:35:40 

     This program is part of the open-source Quantum ESPRESSO suite
     for quantum simulation of materials; please cite
         "P. Giannozzi et al., J. Phys.:Condens. Matter 21 395502 (2009);
         "P. Giannozzi et al., J. Phys.:Condens. Matter 29 465901 (2017);
          URL http://www.quantum-espresso.org", 
     in publications or presentations arising from this work. More details at
     http://www.quantum-espresso.org/quote

     Parallel version (MPI), running on     2 processors

     MPI processes distributed on     1 nodes
     R & G space division:  proc/nbgrp/npool/nimage =       2
     Waiting for input...
     Reading input from standard input

     Current dimensions of program PWSCF are:
     Max number of different atomic species (ntypx) = 10
     Max number of k-points (npk) =  40000
     Max angular momentum in pseudopotentials (lmaxx) =  3
     file C.pbe-n-kjpaw_psl.1.0.0.UPF: wavefunction(s)  2S 2P renormalized

     Subspace diagonalization in iterative solution of the eigenvalue problem:
     a serial algorithm will be used


     Parallelization info
     --------------------
     sticks:   dense  smooth     PW     G-vecs:    dense   smooth      PW
     Min         273     273     81                43333    43333    7141
     Max         274     274     82                43350    43350    7144
     Sum         547     547    163                86683    86683   14285



     bravais-lattice index     =           12
     lattice parameter (alat)  =       4.4276  a.u.
     unit-cell volume          =     641.6553 (a.u.)^3
     number of atoms/cell      =            2
     number of atomic types    =            1
     number of electrons       =         8.00
     number of Kohn-Sham states=            8
     kinetic-energy cutoff     =     100.0000  Ry
     charge density cutoff     =     400.0000  Ry
     scf convergence threshold =      1.0E-10
     mixing beta               =       0.5000
     number of iterations used =            8  plain     mixing
     Exchange-correlation= SLA  PW   PBX  PBC
                           (   1   4   3   4   0   0   0)

     celldm(1)=   4.427628  celldm(2)=   1.000000  celldm(3)=   8.536065
     celldm(4)=  -0.500000  celldm(5)=   0.000000  celldm(6)=   0.000000

     crystal axes: (cart. coord. in units of alat)
               a(1) = (   1.000000   0.000000   0.000000 )  
               a(2) = (  -0.500000   0.866025   0.000000 )  
               a(3) = (   0.000000   0.000000   8.536065 )  

     reciprocal axes: (cart. coord. in units 2 pi/alat)
               b(1) = (  1.000000  0.577350 -0.000000 )  
               b(2) = (  0.000000  1.154701  0.000000 )  
               b(3) = (  0.000000 -0.000000  0.117150 )  


     PseudoPot. # 1 for C  read from file:
     ./Pseudo/C.pbe-n-kjpaw_psl.1.0.0.UPF
     MD5 check sum: ecdf03482cb4269f2fcfa842d572f30f
     Pseudo is Projector augmented-wave + core cor, Zval =  4.0
     Generated using &quot;atomic&quot; code by A. Dal Corso  v.6.3
     Shape of augmentation charge: PSQ
     Using radial grid of 1073 points,  4 beta functions with: 
                l(1) =   0
                l(2) =   0
                l(3) =   1
                l(4) =   1
     Q(r) pseudized with 0 coefficients 


     atomic species   valence    mass     pseudopotential
        C              4.00    12.01070     C ( 1.00)

     24 Sym. Ops., with inversion, found (18 have fractional translation)



   Cartesian axes

     site n.     atom                  positions (alat units)
         1           C   tau(   1) = (   0.0000000   0.0000000   2.1340162  )
         2           C   tau(   2) = (  -0.0000000   0.5773503   2.1340162  )

     number of k points=    37  Gaussian smearing, width (Ry)=  0.0200
                       cart. coord. in units 2pi/alat
        k(    1) = (   0.0000000   0.0000000   0.0000000), wk =   0.0061728
        k(    2) = (   0.0000000   0.0641500   0.0000000), wk =   0.0370370
        k(    3) = (   0.0000000   0.1283001   0.0000000), wk =   0.0370370
        k(    4) = (   0.0000000   0.1924501   0.0000000), wk =   0.0370370
        k(    5) = (   0.0000000   0.2566001   0.0000000), wk =   0.0370370
        k(    6) = (   0.0000000   0.3207501   0.0000000), wk =   0.0370370
        k(    7) = (   0.0000000   0.3849002   0.0000000), wk =   0.0370370
        k(    8) = (   0.0000000   0.4490502   0.0000000), wk =   0.0370370
        k(    9) = (   0.0000000   0.5132002   0.0000000), wk =   0.0370370
        k(   10) = (   0.0000000  -0.5773503   0.0000000), wk =   0.0185185
        k(   11) = (   0.0555556   0.0962250   0.0000000), wk =   0.0370370
        k(   12) = (   0.0555556   0.1603751   0.0000000), wk =   0.0740741
        k(   13) = (   0.0555556   0.2245251   0.0000000), wk =   0.0740741
        k(   14) = (   0.0555556   0.2886751   0.0000000), wk =   0.0740741
        k(   15) = (   0.0555556   0.3528252   0.0000000), wk =   0.0740741
        k(   16) = (   0.0555556   0.4169752   0.0000000), wk =   0.0740741
        k(   17) = (   0.0555556   0.4811252   0.0000000), wk =   0.0740741
        k(   18) = (   0.0555556   0.5452753   0.0000000), wk =   0.0740741
        k(   19) = (   0.1111111   0.1924501   0.0000000), wk =   0.0370370
        k(   20) = (   0.1111111   0.2566001   0.0000000), wk =   0.0740741
        k(   21) = (   0.1111111   0.3207501   0.0000000), wk =   0.0740741
        k(   22) = (   0.1111111   0.3849002   0.0000000), wk =   0.0740741
        k(   23) = (   0.1111111   0.4490502   0.0000000), wk =   0.0740741
        k(   24) = (   0.1111111   0.5132002   0.0000000), wk =   0.0740741
        k(   25) = (   0.1111111   0.5773503   0.0000000), wk =   0.0370370
        k(   26) = (   0.1666667   0.2886751   0.0000000), wk =   0.0370370
        k(   27) = (   0.1666667   0.3528252   0.0000000), wk =   0.0740741
        k(   28) = (   0.1666667   0.4169752   0.0000000), wk =   0.0740741
        k(   29) = (   0.1666667   0.4811252   0.0000000), wk =   0.0740741
        k(   30) = (   0.1666667   0.5452753   0.0000000), wk =   0.0740741
        k(   31) = (   0.2222222   0.3849002   0.0000000), wk =   0.0370370
        k(   32) = (   0.2222222   0.4490502   0.0000000), wk =   0.0740741
        k(   33) = (   0.2222222   0.5132002   0.0000000), wk =   0.0740741
        k(   34) = (   0.2222222   0.5773503   0.0000000), wk =   0.0370370
        k(   35) = (   0.2777778   0.4811252   0.0000000), wk =   0.0370370
        k(   36) = (   0.2777778   0.5452753   0.0000000), wk =   0.0740741
        k(   37) = (   0.3333333   0.5773503   0.0000000), wk =   0.0123457

     Dense  grid:    86683 G-vectors     FFT dimensions: (  30,  30, 250)

     Estimated max dynamical RAM per process >      82.43 MB

     Estimated total dynamical RAM >     164.86 MB

     Check: negative core charge=   -0.000002

     Initial potential from superposition of free atoms

     starting charge    7.99992, renormalised to    8.00000

     negative rho (up, down):  1.014E-04 0.000E+00
     Starting wfcs are    8 randomized atomic wfcs
     Checking if some PAW data can be deallocated... 

     total cpu time spent up to now is        8.1 secs

     Self-consistent Calculation

     iteration #  1     ecut=   100.00 Ry     beta= 0.50
     Davidson diagonalization with overlap
     ethr =  1.00E-02,  avg # of iterations =  5.3

     negative rho (up, down):  1.043E-04 0.000E+00

     total cpu time spent up to now is       39.6 secs

     total energy              =     -36.84875461 Ry
     estimated scf accuracy    <       0.28669222 Ry

     iteration #  2     ecut=   100.00 Ry     beta= 0.50
     Davidson diagonalization with overlap
     ethr =  3.58E-03,  avg # of iterations =  3.3

     negative rho (up, down):  1.195E-04 0.000E+00

     total cpu time spent up to now is       60.4 secs

     total energy              =     -36.85346568 Ry
     estimated scf accuracy    <       0.02734098 Ry

     iteration #  3     ecut=   100.00 Ry     beta= 0.50
     Davidson diagonalization with overlap
     ethr =  3.42E-04,  avg # of iterations =  8.6

     negative rho (up, down):  1.283E-04 0.000E+00

     total cpu time spent up to now is       94.7 secs

     total energy              =     -36.85886676 Ry
     estimated scf accuracy    <       0.00079260 Ry

     iteration #  4     ecut=   100.00 Ry     beta= 0.50
     Davidson diagonalization with overlap
     c_bands:  1 eigenvalues not converged
     ethr =  9.91E-06,  avg # of iterations =  8.0

     negative rho (up, down):  1.307E-04 0.000E+00

     total cpu time spent up to now is      129.1 secs

     total energy              =     -36.85883701 Ry
     estimated scf accuracy    <       0.00044323 Ry

     iteration #  5     ecut=   100.00 Ry     beta= 0.50
     Davidson diagonalization with overlap
     c_bands:  1 eigenvalues not converged
     ethr =  5.54E-06,  avg # of iterations =  3.7

     negative rho (up, down):  1.316E-04 0.000E+00

     total cpu time spent up to now is      152.8 secs

     total energy              =     -36.85892004 Ry
     estimated scf accuracy    <       0.00000243 Ry

     iteration #  6     ecut=   100.00 Ry     beta= 0.50
     Davidson diagonalization with overlap
     ethr =  3.03E-08,  avg # of iterations =  2.8

     negative rho (up, down):  1.320E-04 0.000E+00

     total cpu time spent up to now is      169.5 secs

     total energy              =     -36.85892089 Ry
     estimated scf accuracy    <       0.00000014 Ry

     iteration #  7     ecut=   100.00 Ry     beta= 0.50
     Davidson diagonalization with overlap
     ethr =  1.80E-09,  avg # of iterations =  2.1

     negative rho (up, down):  1.319E-04 0.000E+00

     total cpu time spent up to now is      178.7 secs

     total energy              =     -36.85892091 Ry
     estimated scf accuracy    <          4.5E-09 Ry

     iteration #  8     ecut=   100.00 Ry     beta= 0.50
     Davidson diagonalization with overlap
     ethr =  5.67E-11,  avg # of iterations =  2.5

     negative rho (up, down):  1.319E-04 0.000E+00

     total cpu time spent up to now is      188.0 secs

     total energy              =     -36.85892091 Ry
     estimated scf accuracy    <          3.1E-10 Ry

     iteration #  9     ecut=   100.00 Ry     beta= 0.50
     Davidson diagonalization with overlap
     ethr =  3.84E-12,  avg # of iterations =  2.4

     negative rho (up, down):  1.319E-04 0.000E+00

     total cpu time spent up to now is      197.3 secs

     End of self-consistent calculation

          k = 0.0000 0.0000 0.0000 ( 10735 PWs)   bands (ev):

   -22.5458 -10.4678  -4.7094  -4.7094   0.9425   1.6306   1.7577   2.7651

          k = 0.0000 0.0642 0.0000 ( 10755 PWs)   bands (ev):

   -22.4662 -10.3692  -5.0268  -4.8936   1.0522   1.7424   1.8699   2.8767

          k = 0.0000 0.1283 0.0000 ( 10748 PWs)   bands (ev):

   -22.2279 -10.0742  -5.9025  -5.3805   1.3815   2.0776   2.2067   3.2109

          k = 0.0000 0.1925 0.0000 ( 10774 PWs)   bands (ev):

   -21.8318  -9.5862  -7.1677  -6.0306   1.9306   2.6356   2.7681   3.7672

          k = 0.0000 0.2566 0.0000 ( 10800 PWs)   bands (ev):

   -21.2797  -8.9115  -8.6560  -6.7169   2.6988   3.4147   3.5541   4.5427

          k = 0.0000 0.3208 0.0000 ( 10824 PWs)   bands (ev):

   -20.5744 -10.2432  -8.0623  -7.3529   3.6847   4.3991   4.5645   5.4306

          k = 0.0000 0.3849 0.0000 ( 10826 PWs)   bands (ev):

   -19.7199 -11.8455  -7.8853  -7.0623   3.7855   4.8850   5.6734   5.7988

          k = 0.0000 0.4491 0.0000 ( 10848 PWs)   bands (ev):

   -18.7221 -13.4064  -8.2829  -5.9668   2.0626   6.2876   7.1057   7.2322

          k = 0.0000 0.5132 0.0000 ( 10842 PWs)   bands (ev):

   -17.5940 -14.8830  -8.5276  -4.9335   0.6272   7.2255   7.9722   8.7607

          k = 0.0000-0.5774 0.0000 ( 10852 PWs)   bands (ev):

   -16.5602 -16.0346  -8.6101  -4.4297  -0.0142   7.2203   9.7012   9.8339

          k = 0.0556 0.0962 0.0000 ( 10737 PWs)   bands (ev):

   -22.3073 -10.1724  -5.5911  -5.2615   1.2718   1.9659   2.0944   3.0999

          k = 0.0556 0.1604 0.0000 ( 10750 PWs)   bands (ev):

   -21.9900  -9.7808  -6.6005  -5.8911   1.7112   2.4125   2.5435   3.5453

          k = 0.0556 0.2245 0.0000 ( 10790 PWs)   bands (ev):

   -21.5160  -9.1991  -7.9320  -6.6041   2.3702   3.0814   3.2173   4.2117

          k = 0.0556 0.2887 0.0000 ( 10825 PWs)   bands (ev):

   -20.8874  -9.4432  -8.4361  -7.2903   3.2477   3.9686   4.1156   5.0907

          k = 0.0556 0.3528 0.0000 ( 10824 PWs)   bands (ev):

   -20.1076 -11.0233  -7.8872  -7.5082   4.3417   4.5964   5.1539   5.2383

          k = 0.0556 0.4170 0.0000 ( 10846 PWs)   bands (ev):

   -19.1815 -12.5969  -8.3582  -6.4507   2.8798   5.6478   6.4375   6.5846

          k = 0.0556 0.4811 0.0000 ( 10836 PWs)   bands (ev):

   -18.1176 -14.1125  -8.6819  -5.3532   1.2744   7.1347   7.6823   7.9824

          k = 0.0556 0.5453 0.0000 ( 10839 PWs)   bands (ev):

   -16.9462 -15.5153  -8.8465  -4.4949   0.1512   7.5705   8.9168   9.7318

          k = 0.1111 0.1925 0.0000 ( 10775 PWs)   bands (ev):

   -21.5949  -9.2953  -7.5496  -6.7100   2.2609   2.9702   3.1051   4.1012

          k = 0.1111 0.2566 0.0000 ( 10829 PWs)   bands (ev):

   -21.0444  -8.7726  -8.6242  -7.5530   3.0297   3.7492   3.8913   4.8768

          k = 0.1111 0.3208 0.0000 ( 10839 PWs)   bands (ev):

   -20.3414 -10.2083  -8.2662  -7.7792   4.0161   4.7317   4.9020   5.3338

          k = 0.1111 0.3849 0.0000 ( 10864 PWs)   bands (ev):

   -19.4902 -11.7283  -8.8301  -6.7832   3.6150   5.2175   5.9817   6.1370

          k = 0.1111 0.4491 0.0000 ( 10853 PWs)   bands (ev):

   -18.4977 -13.2422  -9.2396  -5.6887   1.9692   6.6284   7.4113   7.5950

          k = 0.1111 0.5132 0.0000 ( 10855 PWs)   bands (ev):

   -17.3781 -14.6897  -9.4882  -4.6461   0.5736   8.2118   8.6135   9.0392

          k = 0.1111 0.5774 0.0000 ( 10875 PWs)   bands (ev):

   -16.3649 -15.8145  -9.5715  -4.1283  -0.0656   8.5323   9.9943  10.1435

          k = 0.1667 0.2887 0.0000 ( 10853 PWs)   bands (ev):

   -20.4195  -9.7270  -8.6155  -7.8701   3.9076   4.6371   4.7899   5.5891

          k = 0.1667 0.3528 0.0000 ( 10865 PWs)   bands (ev):

   -19.6453 -10.9373  -9.4602  -6.9523   4.0844   5.0014   5.7430   5.9129

          k = 0.1667 0.4170 0.0000 ( 10856 PWs)   bands (ev):

   -18.7278 -12.3352 -10.0241  -5.9023   2.5383   6.3072   7.0557   7.2599

          k = 0.1667 0.4811 0.0000 ( 10870 PWs)   bands (ev):

   -17.6772 -13.7620 -10.3792  -4.7991   1.0725   7.8169   8.5461   8.8301

          k = 0.1667 0.5453 0.0000 ( 10876 PWs)   bands (ev):

   -16.5305 -15.1097 -10.5535  -3.9055  -0.0131   9.5029   9.9597  10.0155

          k = 0.2222 0.3849 0.0000 ( 10879 PWs)   bands (ev):

   -18.8048 -11.7426 -10.5877  -5.9754   2.7667   6.1993   6.9323   7.1480

          k = 0.2222 0.4491 0.0000 ( 10863 PWs)   bands (ev):

   -17.8287 -12.8584 -11.2930  -4.8904   1.4181   7.6026   8.2759   8.6065

          k = 0.2222 0.5132 0.0000 ( 10875 PWs)   bands (ev):

   -16.7363 -14.1481 -11.6258  -3.8154   0.1730   9.1944   9.4472  10.2875

          k = 0.2222 0.5774 0.0000 ( 10857 PWs)   bands (ev):

   -15.7796 -15.1842 -11.7268  -3.2293  -0.4724   9.7618  10.8409  11.0144

          k = 0.2778 0.4811 0.0000 ( 10859 PWs)   bands (ev):

   -16.8085 -13.4541 -12.3615  -3.7958   0.2723   9.0872   9.2149  10.1752

          k = 0.2778 0.5453 0.0000 ( 10874 PWs)   bands (ev):

   -15.7165 -14.4190 -12.8239  -2.7822  -0.7611   9.2862  10.7092  11.9664

          k = 0.3333 0.5774 0.0000 ( 10863 PWs)   bands (ev):

   -14.8068 -14.8068 -13.5009  -1.7502  -1.7502   9.0972  12.0629  12.0631

     the Fermi energy is    -1.7502 ev

!    total energy              =     -36.85892091 Ry

     total all-electron energy =      -152.387115 Ry
     estimated scf accuracy    <          2.6E-12 Ry
     smearing contrib. (-TS)   =      -0.00013931 Ry
     internal energy E=F+TS    =     -36.85878160 Ry

     The total energy is F=E-TS. E is the sum of the following terms:
     one-electron contribution =    -248.38433423 Ry
     hartree contribution      =     125.78421692 Ry
     xc contribution           =      -9.51343385 Ry
     ewald contribution        =     107.60050228 Ry
     one-center paw contrib.   =     -12.34573272 Ry

     convergence has been achieved in   9 iterations

     Writing output data file ./tmp/graphene1.save/

     init_run     :      7.26s CPU      7.86s WALL (       1 calls)
     electrons    :    168.06s CPU    189.17s WALL (       1 calls)

     Called by init_run:
     wfcinit      :      5.93s CPU      6.18s WALL (       1 calls)
     potinit      :      0.49s CPU      0.75s WALL (       1 calls)
     hinit0       :      0.58s CPU      0.62s WALL (       1 calls)

     Called by electrons:
     c_bands      :    144.49s CPU    162.63s WALL (       9 calls)
     sum_band     :     20.38s CPU     23.03s WALL (       9 calls)
     v_of_rho     :      1.73s CPU      2.02s WALL (      10 calls)
     newd         :      0.72s CPU      0.80s WALL (      10 calls)
     PAW_pot      :      0.88s CPU      0.94s WALL (      10 calls)
     mix_rho      :      0.27s CPU      0.30s WALL (       9 calls)

     Called by c_bands:
     init_us_2    :      1.58s CPU      1.75s WALL (     703 calls)
     cegterg      :    141.49s CPU    159.35s WALL (     333 calls)

     Called by *egterg:
     cdiaghg      :      0.38s CPU      0.44s WALL (    1763 calls)
     h_psi        :    117.95s CPU    132.74s WALL (    1800 calls)
     s_psi        :      5.14s CPU      5.67s WALL (    1800 calls)
     g_psi        :      0.48s CPU      0.55s WALL (    1430 calls)

     Called by h_psi:
     h_psi:calbec :      5.58s CPU      6.18s WALL (    1800 calls)
     vloc_psi     :    106.70s CPU    120.26s WALL (    1800 calls)
     add_vuspsi   :      5.19s CPU      5.79s WALL (    1800 calls)

     General routines
     calbec       :      7.07s CPU      7.86s WALL (    2133 calls)
     fft          :      1.07s CPU      1.24s WALL (     110 calls)
     ffts         :      0.10s CPU      0.11s WALL (       9 calls)
     fftw         :    102.17s CPU    115.57s WALL (   19518 calls)

     Parallel routines
     fft_scatt_xy :     21.82s CPU     24.56s WALL (   19637 calls)
     fft_scatt_yz :     16.59s CPU     19.52s WALL (   19637 calls)

     PWSCF        :   2m55.56s CPU   3m17.42s WALL


   This run was terminated on:  11:38:57  24Aug2023            

=------------------------------------------------------------------------------=
   JOB DONE.
=------------------------------------------------------------------------------=
