
     Program BANDS v.6.7MaX starts on  5Aug2023 at 11:45:17 

     This program is part of the open-source Quantum ESPRESSO suite
     for quantum simulation of materials; please cite
         "P. Giannozzi et al., J. Phys.:Condens. Matter 21 395502 (2009);
         "P. Giannozzi et al., J. Phys.:Condens. Matter 29 465901 (2017);
          URL http://www.quantum-espresso.org", 
     in publications or presentations arising from this work. More details at
     http://www.quantum-espresso.org/quote

     Parallel version (MPI), running on     1 processors

     MPI processes distributed on     1 nodes

     Reading xml data from directory:

     ./tmp/graphene1.save/
     file C.pbe-n-kjpaw_psl.1.0.0.UPF: wavefunction(s)  2S 2P renormalized

     IMPORTANT: XC functional enforced from input :
     Exchange-correlation= PBE
                           (   1   4   3   4   0   0   0)
     Any further DFT definition will be discarded
     Please, verify this is what you really want


     G-vector sticks info
     --------------------
     sticks:   dense  smooth     PW     G-vecs:    dense   smooth      PW
     Sum         661     661    199               105985   105985   17093


     Check: negative core charge=   -0.000002

     negative rho (up, down):  1.211E-04 0.000E+00
     Reading collected, re-writing distributed wavefunctions
     high-symmetry point:  0.0000 0.0000 0.0000   x coordinate   0.0000
     high-symmetry point:  0.3333 0.5773 0.0000   x coordinate   0.6667
     high-symmetry point:  0.5000 0.2887 0.0000   x coordinate   1.0000
     high-symmetry point:  0.0000 0.0000 0.0000   x coordinate   1.5773

     Plottable bands (eV) written to file graphene.bands.gnu
     Bands written to file graphene.bands

 **************************************************************************

                    xk=(   0.00000,   0.00000,   0.00000  )

     point group D_6h(6/mmm)
     there are 12 classes
     the character table:

       E     2C6   2C3   C2    3C2'  3C2'' i     2S3   2S6   s_h   3s_d  3s_v 
A_1g   1.00  1.00  1.00  1.00  1.00  1.00  1.00  1.00  1.00  1.00  1.00  1.00
A_2g   1.00  1.00  1.00  1.00 -1.00 -1.00  1.00  1.00  1.00  1.00 -1.00 -1.00
B_1g   1.00 -1.00  1.00 -1.00  1.00 -1.00  1.00 -1.00  1.00 -1.00  1.00 -1.00
B_2g   1.00 -1.00  1.00 -1.00 -1.00  1.00  1.00 -1.00  1.00 -1.00 -1.00  1.00
E_1g   2.00  1.00 -1.00 -2.00  0.00  0.00  2.00  1.00 -1.00 -2.00  0.00  0.00
E_2g   2.00 -1.00 -1.00  2.00  0.00  0.00  2.00 -1.00 -1.00  2.00  0.00  0.00
A_1u   1.00  1.00  1.00  1.00  1.00  1.00 -1.00 -1.00 -1.00 -1.00 -1.00 -1.00
A_2u   1.00  1.00  1.00  1.00 -1.00 -1.00 -1.00 -1.00 -1.00 -1.00  1.00  1.00
B_1u   1.00 -1.00  1.00 -1.00  1.00 -1.00 -1.00  1.00 -1.00  1.00 -1.00  1.00
B_2u   1.00 -1.00  1.00 -1.00 -1.00  1.00 -1.00  1.00 -1.00  1.00  1.00 -1.00
E_1u   2.00  1.00 -1.00 -2.00  0.00  0.00 -2.00 -1.00  1.00  2.00  0.00  0.00
E_2u   2.00 -1.00 -1.00  2.00  0.00  0.00 -2.00  1.00  1.00 -2.00  0.00  0.00

     the symmetry operations in each class and the name of the first element:

     E        1
                                                                 
     2C6      5    6
                                                                 
     2C3      7    8
                                                                 
     C2       2
                                                                 
     3C2'     4   12   11
                                                                 
     3C2''    3    9   10
                                                                 
     i       13
                                                                 
     2S3     17   18
                                                                 
     2S6     19   20
                                                                 
     s_h     14
                                                                 
     3s_d    16   24   23
                                                                 
     3s_v    15   21   22
                                                                 

     Band symmetry, D_6h(6/mmm) point group:

     e(  1 -  1) =    -21.23488  eV     1   --> A_1g           
     e(  2 -  2) =     -9.53775  eV     1   --> A_2u           
     e(  3 -  4) =     -5.93897  eV     2   --> E_2g           
     e(  5 -  5) =      0.76427  eV     1   --> A_1g           
     e(  6 -  6) =      1.40802  eV     1   --> A_2u           
     e(  7 -  7) =      1.54370  eV     1   --> A_1g           
     e(  8 -  8) =      2.55253  eV     1   --> A_2u           

 **************************************************************************

 **************************************************************************

                    xk=(   0.00667,   0.01155,   0.00000  )

     point group C_2v (mm2) 
     there are  4 classes
     the character table:

       E     C2    s_v   s_v' 
A_1    1.00  1.00  1.00  1.00
A_2    1.00  1.00 -1.00 -1.00
B_1    1.00 -1.00  1.00 -1.00
B_2    1.00 -1.00 -1.00  1.00

     the symmetry operations in each class and the name of the first element:

     E        1
                                                                 
     C2       2
                                                                 
     s_v      3
                                                                 
     s_v'     4
                                                                 

     Band symmetry, C_2v (mm2)  point group:

     e(  1 -  1) =    -21.23200  eV     1   --> A_1  D_1  S_1  
     e(  2 -  2) =     -9.53441  eV     1   --> B_2  D_4  S_4  
     e(  3 -  3) =     -5.95160  eV     1   --> B_1  D_3  S_3  
     e(  4 -  4) =     -5.94492  eV     1   --> A_1  D_1  S_1  
     e(  5 -  5) =      0.76817  eV     1   --> A_1  D_1  S_1  
     e(  6 -  6) =      1.41196  eV     1   --> B_2  D_4  S_4  
     e(  7 -  7) =      1.54767  eV     1   --> A_1  D_1  S_1  
     e(  8 -  8) =      2.55645  eV     1   --> B_2  D_4  S_4  

 **************************************************************************

 **************************************************************************

                    xk=(   0.01333,   0.02309,   0.00000  )

     Band symmetry, C_2v (mm2)  point group:

     e(  1 -  1) =    -21.22336  eV     1   --> A_1  D_1  S_1  
     e(  2 -  2) =     -9.52439  eV     1   --> B_2  D_4  S_4  
     e(  3 -  3) =     -5.98925  eV     1   --> B_1  D_3  S_3  
     e(  4 -  4) =     -5.96273  eV     1   --> A_1  D_1  S_1  
     e(  5 -  5) =      0.77986  eV     1   --> A_1  D_1  S_1  
     e(  6 -  6) =      1.42376  eV     1   --> B_2  D_4  S_4  
     e(  7 -  7) =      1.55958  eV     1   --> A_1  D_1  S_1  
     e(  8 -  8) =      2.56821  eV     1   --> B_2  D_4  S_4  

 **************************************************************************

 **************************************************************************

                    xk=(   0.02000,   0.03464,   0.00000  )

     Band symmetry, C_2v (mm2)  point group:

     e(  1 -  1) =    -21.20896  eV     1   --> A_1  D_1  S_1  
     e(  2 -  2) =     -9.50770  eV     1   --> B_2  D_4  S_4  
     e(  3 -  3) =     -6.05119  eV     1   --> B_1  D_3  S_3  
     e(  4 -  4) =     -5.99231  eV     1   --> A_1  D_1  S_1  
     e(  5 -  5) =      0.79934  eV     1   --> A_1  D_1  S_1  
     e(  6 -  6) =      1.44344  eV     1   --> B_2  D_4  S_4  
     e(  7 -  7) =      1.57942  eV     1   --> A_1  D_1  S_1  
     e(  8 -  8) =      2.58780  eV     1   --> B_2  D_4  S_4  

 **************************************************************************

 **************************************************************************

                    xk=(   0.02667,   0.04619,   0.00000  )

     Band symmetry, C_2v (mm2)  point group:

     e(  1 -  1) =    -21.18880  eV     1   --> A_1  D_1  S_1  
     e(  2 -  2) =     -9.48435  eV     1   --> B_2  D_4  S_4  
     e(  3 -  3) =     -6.13628  eV     1   --> B_1  D_3  S_3  
     e(  4 -  4) =     -6.03351  eV     1   --> A_1  D_1  S_1  
     e(  5 -  5) =      0.82661  eV     1   --> A_1  D_1  S_1  
     e(  6 -  6) =      1.47098  eV     1   --> B_2  D_4  S_4  
     e(  7 -  7) =      1.60720  eV     1   --> A_1  D_1  S_1  
     e(  8 -  8) =      2.61523  eV     1   --> B_2  D_4  S_4  

 **************************************************************************

 **************************************************************************

                    xk=(   0.03333,   0.05773,   0.00000  )

     Band symmetry, C_2v (mm2)  point group:

     e(  1 -  1) =    -21.16290  eV     1   --> A_1  D_1  S_1  
     e(  2 -  2) =     -9.45434  eV     1   --> B_2  D_4  S_4  
     e(  3 -  3) =     -6.24304  eV     1   --> B_1  D_3  S_3  
     e(  4 -  4) =     -6.08613  eV     1   --> A_1  D_1  S_1  
     e(  5 -  5) =      0.86168  eV     1   --> A_1  D_1  S_1  
     e(  6 -  6) =      1.50639  eV     1   --> B_2  D_4  S_4  
     e(  7 -  7) =      1.64292  eV     1   --> A_1  D_1  S_1  
     e(  8 -  8) =      2.65049  eV     1   --> B_2  D_4  S_4  

 **************************************************************************

 **************************************************************************

                    xk=(   0.04000,   0.06928,   0.00000  )

     Band symmetry, C_2v (mm2)  point group:

     e(  1 -  1) =    -21.13124  eV     1   --> A_1  D_1  S_1  
     e(  2 -  2) =     -9.41771  eV     1   --> B_2  D_4  S_4  
     e(  3 -  3) =     -6.36975  eV     1   --> B_1  D_3  S_3  
     e(  4 -  4) =     -6.14990  eV     1   --> A_1  D_1  S_1  
     e(  5 -  5) =      0.90454  eV     1   --> A_1  D_1  S_1  
     e(  6 -  6) =      1.54966  eV     1   --> B_2  D_4  S_4  
     e(  7 -  7) =      1.68658  eV     1   --> A_1  D_1  S_1  
     e(  8 -  8) =      2.69357  eV     1   --> B_2  D_4  S_4  

 **************************************************************************

 **************************************************************************

                    xk=(   0.04667,   0.08083,   0.00000  )

     Band symmetry, C_2v (mm2)  point group:

     e(  1 -  1) =    -21.09385  eV     1   --> A_1  D_1  S_1  
     e(  2 -  2) =     -9.37446  eV     1   --> B_2  D_4  S_4  
     e(  3 -  3) =     -6.51453  eV     1   --> B_1  D_3  S_3  
     e(  4 -  4) =     -6.22451  eV     1   --> A_1  D_1  S_1  
     e(  5 -  5) =      0.95519  eV     1   --> A_1  D_1  S_1  
     e(  6 -  6) =      1.60079  eV     1   --> B_2  D_4  S_4  
     e(  7 -  7) =      1.73817  eV     1   --> A_1  D_1  S_1  
     e(  8 -  8) =      2.74449  eV     1   --> B_2  D_4  S_4  

 **************************************************************************

 **************************************************************************

                    xk=(   0.05333,   0.09238,   0.00000  )

     Band symmetry, C_2v (mm2)  point group:

     e(  1 -  1) =    -21.05073  eV     1   --> A_1  D_1  S_1  
     e(  2 -  2) =     -9.32461  eV     1   --> B_2  D_4  S_4  
     e(  3 -  3) =     -6.67544  eV     1   --> B_1  D_3  S_3  
     e(  4 -  4) =     -6.30959  eV     1   --> A_1  D_1  S_1  
     e(  5 -  5) =      1.01362  eV     1   --> A_1  D_1  S_1  
     e(  6 -  6) =      1.65977  eV     1   --> B_2  D_4  S_4  
     e(  7 -  7) =      1.79770  eV     1   --> A_1  D_1  S_1  
     e(  8 -  8) =      2.80322  eV     1   --> B_2  D_4  S_4  

 **************************************************************************

 **************************************************************************

                    xk=(   0.06000,   0.10392,   0.00000  )

     Band symmetry, C_2v (mm2)  point group:

     e(  1 -  1) =    -21.00190  eV     1   --> A_1  D_1  S_1  
     e(  2 -  2) =     -9.26821  eV     1   --> B_2  D_4  S_4  
     e(  3 -  3) =     -6.85057  eV     1   --> B_1  D_3  S_3  
     e(  4 -  4) =     -6.40475  eV     1   --> A_1  D_1  S_1  
     e(  5 -  5) =      1.07985  eV     1   --> A_1  D_1  S_1  
     e(  6 -  6) =      1.72661  eV     1   --> B_2  D_4  S_4  
     e(  7 -  7) =      1.86517  eV     1   --> A_1  D_1  S_1  
     e(  8 -  8) =      2.86976  eV     1   --> B_2  D_4  S_4  

 **************************************************************************

 **************************************************************************

                    xk=(   0.06667,   0.11547,   0.00000  )

     Band symmetry, C_2v (mm2)  point group:

     e(  1 -  1) =    -20.94736  eV     1   --> A_1  D_1  S_1  
     e(  2 -  2) =     -9.20527  eV     1   --> B_2  D_4  S_4  
     e(  3 -  3) =     -7.03805  eV     1   --> B_1  D_3  S_3  
     e(  4 -  4) =     -6.50951  eV     1   --> A_1  D_1  S_1  
     e(  5 -  5) =      1.15386  eV     1   --> A_1  D_1  S_1  
     e(  6 -  6) =      1.80129  eV     1   --> B_2  D_4  S_4  
     e(  7 -  7) =      1.94058  eV     1   --> A_1  D_1  S_1  
     e(  8 -  8) =      2.94411  eV     1   --> B_2  D_4  S_4  

 **************************************************************************

 **************************************************************************

                    xk=(   0.07333,   0.12702,   0.00000  )

     Band symmetry, C_2v (mm2)  point group:

     e(  1 -  1) =    -20.88712  eV     1   --> A_1  D_1  S_1  
     e(  2 -  2) =     -9.13584  eV     1   --> B_2  D_4  S_4  
     e(  3 -  3) =     -7.23612  eV     1   --> B_1  D_3  S_3  
     e(  4 -  4) =     -6.62341  eV     1   --> A_1  D_1  S_1  
     e(  5 -  5) =      1.23565  eV     1   --> A_1  D_1  S_1  
     e(  6 -  6) =      1.88381  eV     1   --> B_2  D_4  S_4  
     e(  7 -  7) =      2.02392  eV     1   --> A_1  D_1  S_1  
     e(  8 -  8) =      3.02625  eV     1   --> B_2  D_4  S_4  

 **************************************************************************

 **************************************************************************

                    xk=(   0.08000,   0.13856,   0.00000  )

     Band symmetry, C_2v (mm2)  point group:

     e(  1 -  1) =    -20.82121  eV     1   --> A_1  D_1  S_1  
     e(  2 -  2) =     -9.05996  eV     1   --> B_2  D_4  S_4  
     e(  3 -  3) =     -7.44316  eV     1   --> B_1  D_3  S_3  
     e(  4 -  4) =     -6.74592  eV     1   --> A_1  D_1  S_1  
     e(  5 -  5) =      1.32521  eV     1   --> A_1  D_1  S_1  
     e(  6 -  6) =      1.97415  eV     1   --> B_2  D_4  S_4  
     e(  7 -  7) =      2.11521  eV     1   --> A_1  D_1  S_1  
     e(  8 -  8) =      3.11619  eV     1   --> B_2  D_4  S_4  

 **************************************************************************

 **************************************************************************

                    xk=(   0.08667,   0.15011,   0.00000  )

     Band symmetry, C_2v (mm2)  point group:

     e(  1 -  1) =    -20.74964  eV     1   --> A_1  D_1  S_1  
     e(  2 -  2) =     -8.97768  eV     1   --> B_2  D_4  S_4  
     e(  3 -  3) =     -7.65767  eV     1   --> B_1  D_3  S_3  
     e(  4 -  4) =     -6.87650  eV     1   --> A_1  D_1  S_1  
     e(  5 -  5) =      1.42255  eV     1   --> A_1  D_1  S_1  
     e(  6 -  6) =      2.07232  eV     1   --> B_2  D_4  S_4  
     e(  7 -  7) =      2.21443  eV     1   --> A_1  D_1  S_1  
     e(  8 -  8) =      3.21389  eV     1   --> B_2  D_4  S_4  

 **************************************************************************

 **************************************************************************

                    xk=(   0.09333,   0.16166,   0.00000  )

     Band symmetry, C_2v (mm2)  point group:

     e(  1 -  1) =    -20.67243  eV     1   --> A_1  D_1  S_1  
     e(  2 -  2) =     -8.88904  eV     1   --> B_2  D_4  S_4  
     e(  3 -  3) =     -7.87829  eV     1   --> B_1  D_3  S_3  
     e(  4 -  4) =     -7.01459  eV     1   --> A_1  D_1  S_1  
     e(  5 -  5) =      1.52766  eV     1   --> A_1  D_1  S_1  
     e(  6 -  6) =      2.17830  eV     1   --> B_2  D_4  S_4  
     e(  7 -  7) =      2.32158  eV     1   --> A_1  D_1  S_1  
     e(  8 -  8) =      3.31936  eV     1   --> B_2  D_4  S_4  

 **************************************************************************

 **************************************************************************

                    xk=(   0.10000,   0.17320,   0.00000  )

     Band symmetry, C_2v (mm2)  point group:

     e(  1 -  1) =    -20.58960  eV     1   --> A_1  D_1  S_1  
     e(  2 -  2) =     -8.79411  eV     1   --> B_2  D_4  S_4  
     e(  3 -  3) =     -8.10381  eV     1   --> B_1  D_3  S_3  
     e(  4 -  4) =     -7.15963  eV     1   --> A_1  D_1  S_1  
     e(  5 -  5) =      1.64052  eV     1   --> A_1  D_1  S_1  
     e(  6 -  6) =      2.29207  eV     1   --> B_2  D_4  S_4  
     e(  7 -  7) =      2.43667  eV     1   --> A_1  D_1  S_1  
     e(  8 -  8) =      3.43258  eV     1   --> B_2  D_4  S_4  

 **************************************************************************

 **************************************************************************

                    xk=(   0.10667,   0.18475,   0.00000  )

     Band symmetry, C_2v (mm2)  point group:

     e(  1 -  1) =    -20.50118  eV     1   --> A_1  D_1  S_1  
     e(  2 -  2) =     -8.69294  eV     1   --> B_2  D_4  S_4  
     e(  3 -  3) =     -8.33314  eV     1   --> B_1  D_3  S_3  
     e(  4 -  4) =     -7.31102  eV     1   --> A_1  D_1  S_1  
     e(  5 -  5) =      1.76114  eV     1   --> A_1  D_1  S_1  
     e(  6 -  6) =      2.41362  eV     1   --> B_2  D_4  S_4  
     e(  7 -  7) =      2.55970  eV     1   --> A_1  D_1  S_1  
     e(  8 -  8) =      3.55352  eV     1   --> B_2  D_4  S_4  

 **************************************************************************

 **************************************************************************

                    xk=(   0.11333,   0.19630,   0.00000  )

     Band symmetry, C_2v (mm2)  point group:

     e(  1 -  1) =    -20.40720  eV     1   --> A_1  D_1  S_1  
     e(  2 -  2) =     -8.58562  eV     1   --> B_2  D_4  S_4  
     e(  3 -  3) =     -8.56530  eV     1   --> B_1  D_3  S_3  
     e(  4 -  4) =     -7.46817  eV     1   --> A_1  D_1  S_1  
     e(  5 -  5) =      1.88951  eV     1   --> A_1  D_1  S_1  
     e(  6 -  6) =      2.54293  eV     1   --> B_2  D_4  S_4  
     e(  7 -  7) =      2.69067  eV     1   --> A_1  D_1  S_1  
     e(  8 -  8) =      3.68217  eV     1   --> B_2  D_4  S_4  

 **************************************************************************

 **************************************************************************

                    xk=(   0.12000,   0.20784,   0.00000  )

     Band symmetry, C_2v (mm2)  point group:

     e(  1 -  1) =    -20.30767  eV     1   --> A_1  D_1  S_1  
     e(  2 -  2) =     -8.79943  eV     1   --> B_1  D_3  S_3  
     e(  3 -  3) =     -8.47221  eV     1   --> B_2  D_4  S_4  
     e(  4 -  4) =     -7.63052  eV     1   --> A_1  D_1  S_1  
     e(  5 -  5) =      2.02561  eV     1   --> A_1  D_1  S_1  
     e(  6 -  6) =      2.67999  eV     1   --> B_2  D_4  S_4  
     e(  7 -  7) =      2.82956  eV     1   --> A_1  D_1  S_1  
     e(  8 -  8) =      3.81850  eV     1   --> B_2  D_4  S_4  

 **************************************************************************

 **************************************************************************

                    xk=(   0.12667,   0.21939,   0.00000  )

     Band symmetry, C_2v (mm2)  point group:

     e(  1 -  1) =    -20.20265  eV     1   --> A_1  D_1  S_1  
     e(  2 -  2) =     -9.03477  eV     1   --> B_1  D_3  S_3  
     e(  3 -  3) =     -8.35280  eV     1   --> B_2  D_4  S_4  
     e(  4 -  4) =     -7.79746  eV     1   --> A_1  D_1  S_1  
     e(  5 -  5) =      2.16943  eV     1   --> A_1  D_1  S_1  
     e(  6 -  6) =      2.82477  eV     1   --> B_2  D_4  S_4  
     e(  7 -  7) =      2.97639  eV     1   --> A_1  D_1  S_1  
     e(  8 -  8) =      3.96248  eV     1   --> B_2  D_4  S_4  

 **************************************************************************

 **************************************************************************

                    xk=(   0.13333,   0.23094,   0.00000  )

     Band symmetry, C_2v (mm2)  point group:

     e(  1 -  1) =    -20.09216  eV     1   --> A_1  D_1  S_1  
     e(  2 -  2) =     -9.27063  eV     1   --> B_1  D_3  S_3  
     e(  3 -  3) =     -8.22749  eV     1   --> B_2  D_4  S_4  
     e(  4 -  4) =     -7.96844  eV     1   --> A_1  D_1  S_1  
     e(  5 -  5) =      2.32096  eV     1   --> A_1  D_1  S_1  
     e(  6 -  6) =      2.97724  eV     1   --> B_2  D_4  S_4  
     e(  7 -  7) =      3.13115  eV     1   --> A_1  D_1  S_1  
     e(  8 -  8) =      3.93325  eV     1   --> A_2  D_2  S_2  

 **************************************************************************

 **************************************************************************

                    xk=(   0.14000,   0.24248,   0.00000  )

     Band symmetry, C_2v (mm2)  point group:

     e(  1 -  1) =    -19.97624  eV     1   --> A_1  D_1  S_1  
     e(  2 -  2) =     -9.50642  eV     1   --> B_1  D_3  S_3  
     e(  3 -  3) =     -8.14289  eV     1   --> A_1  D_1  S_1  
     e(  4 -  4) =     -8.09638  eV     1   --> B_2  D_4  S_4  
     e(  5 -  5) =      2.48019  eV     1   --> A_1  D_1  S_1  
     e(  6 -  6) =      3.13736  eV     1   --> B_2  D_4  S_4  
     e(  7 -  7) =      3.29384  eV     1   --> A_1  D_1  S_1  
     e(  8 -  8) =      3.68789  eV     1   --> A_2  D_2  S_2  

 **************************************************************************

 **************************************************************************

                    xk=(   0.14667,   0.25403,   0.00000  )

     Band symmetry, C_2v (mm2)  point group:

     e(  1 -  1) =    -19.85493  eV     1   --> A_1  D_1  S_1  
     e(  2 -  2) =     -9.74159  eV     1   --> B_1  D_3  S_3  
     e(  3 -  3) =     -8.32025  eV     1   --> A_1  D_1  S_1  
     e(  4 -  4) =     -7.95957  eV     1   --> B_2  D_4  S_4  
     e(  5 -  5) =      2.64709  eV     1   --> A_1  D_1  S_1  
     e(  6 -  6) =      3.30510  eV     1   --> B_2  D_4  S_4  
     e(  7 -  7) =      3.43937  eV     1   --> A_2  D_2  S_2  
     e(  8 -  8) =      3.46446  eV     1   --> A_1  D_1  S_1  

 **************************************************************************

 **************************************************************************

                    xk=(   0.15333,   0.26558,   0.00000  )

     Band symmetry, C_2v (mm2)  point group:

     e(  1 -  1) =    -19.72830  eV     1   --> A_1  D_1  S_1  
     e(  2 -  2) =     -9.97568  eV     1   --> B_1  D_3  S_3  
     e(  3 -  3) =     -8.50000  eV     1   --> A_1  D_1  S_1  
     e(  4 -  4) =     -7.81721  eV     1   --> B_2  D_4  S_4  
     e(  5 -  5) =      2.82165  eV     1   --> A_1  D_1  S_1  
     e(  6 -  6) =      3.18838  eV     1   --> A_2  D_2  S_2  
     e(  7 -  7) =      3.48041  eV     1   --> B_2  D_4  S_4  
     e(  8 -  8) =      3.64300  eV     1   --> A_1  D_1  S_1  

 **************************************************************************

 **************************************************************************

                    xk=(   0.16000,   0.27713,   0.00000  )

     Band symmetry, C_2v (mm2)  point group:

     e(  1 -  1) =    -19.59639  eV     1   --> A_1  D_1  S_1  
     e(  2 -  2) =    -10.20827  eV     1   --> B_1  D_3  S_3  
     e(  3 -  3) =     -8.68162  eV     1   --> A_1  D_1  S_1  
     e(  4 -  4) =     -7.66941  eV     1   --> B_2  D_4  S_4  
     e(  5 -  5) =      2.93561  eV     1   --> A_2  D_2  S_2  
     e(  6 -  6) =      3.00384  eV     1   --> A_1  D_1  S_1  
     e(  7 -  7) =      3.66322  eV     1   --> B_2  D_4  S_4  
     e(  8 -  8) =      3.82946  eV     1   --> A_1  D_1  S_1  

 **************************************************************************

 **************************************************************************

                    xk=(   0.16667,   0.28867,   0.00000  )

     Band symmetry, C_2v (mm2)  point group:

     e(  1 -  1) =    -19.45927  eV     1   --> A_1  D_1  S_1  
     e(  2 -  2) =    -10.43898  eV     1   --> B_1  D_3  S_3  
     e(  3 -  3) =     -8.86461  eV     1   --> A_1  D_1  S_1  
     e(  4 -  4) =     -7.51633  eV     1   --> B_2  D_4  S_4  
     e(  5 -  5) =      2.68167  eV     1   --> A_2  D_2  S_2  
     e(  6 -  6) =      3.19363  eV     1   --> A_1  D_1  S_1  
     e(  7 -  7) =      3.85347  eV     1   --> B_2  D_4  S_4  
     e(  8 -  8) =      4.02384  eV     1   --> A_1  D_1  S_1  

 **************************************************************************

 **************************************************************************

                    xk=(   0.17333,   0.30022,   0.00000  )

     Band symmetry, C_2v (mm2)  point group:

     e(  1 -  1) =    -19.31699  eV     1   --> A_1  D_1  S_1  
     e(  2 -  2) =    -10.66748  eV     1   --> B_1  D_3  S_3  
     e(  3 -  3) =     -9.04848  eV     1   --> A_1  D_1  S_1  
     e(  4 -  4) =     -7.35813  eV     1   --> B_2  D_4  S_4  
     e(  5 -  5) =      2.42717  eV     1   --> A_2  D_2  S_2  
     e(  6 -  6) =      3.39100  eV     1   --> A_1  D_1  S_1  
     e(  7 -  7) =      4.05106  eV     1   --> B_2  D_4  S_4  
     e(  8 -  8) =      4.22614  eV     1   --> A_1  D_1  S_1  

 **************************************************************************

 **************************************************************************

                    xk=(   0.18000,   0.31177,   0.00000  )

     Band symmetry, C_2v (mm2)  point group:

     e(  1 -  1) =    -19.16965  eV     1   --> A_1  D_1  S_1  
     e(  2 -  2) =    -10.89347  eV     1   --> B_1  D_3  S_3  
     e(  3 -  3) =     -9.23275  eV     1   --> A_1  D_1  S_1  
     e(  4 -  4) =     -7.19499  eV     1   --> B_2  D_4  S_4  
     e(  5 -  5) =      2.17264  eV     1   --> A_2  D_2  S_2  
     e(  6 -  6) =      3.59589  eV     1   --> A_1  D_1  S_1  
     e(  7 -  7) =      4.25588  eV     1   --> B_2  D_4  S_4  
     e(  8 -  8) =      4.43634  eV     1   --> A_1  D_1  S_1  

 **************************************************************************

 **************************************************************************

                    xk=(   0.18666,   0.32331,   0.00000  )

     Band symmetry, C_2v (mm2)  point group:

     e(  1 -  1) =    -19.01732  eV     1   --> A_1  D_1  S_1  
     e(  2 -  2) =    -11.11669  eV     1   --> B_1  D_3  S_3  
     e(  3 -  3) =     -9.41699  eV     1   --> A_1  D_1  S_1  
     e(  4 -  4) =     -7.02709  eV     1   --> B_2  D_4  S_4  
     e(  5 -  5) =      1.91860  eV     1   --> A_2  D_2  S_2  
     e(  6 -  6) =      3.80827  eV     1   --> A_1  D_1  S_1  
     e(  7 -  7) =      4.46778  eV     1   --> B_2  D_4  S_4  
     e(  8 -  8) =      4.65445  eV     1   --> A_1  D_1  S_1  

 **************************************************************************

 **************************************************************************

                    xk=(   0.19333,   0.33486,   0.00000  )

     Band symmetry, C_2v (mm2)  point group:

     e(  1 -  1) =    -18.86011  eV     1   --> A_1  D_1  S_1  
     e(  2 -  2) =    -11.33690  eV     1   --> B_1  D_3  S_3  
     e(  3 -  3) =     -9.60073  eV     1   --> A_1  D_1  S_1  
     e(  4 -  4) =     -6.85467  eV     1   --> B_2  D_4  S_4  
     e(  5 -  5) =      1.66553  eV     1   --> A_2  D_2  S_2  
     e(  6 -  6) =      4.02809  eV     1   --> A_1  D_1  S_1  
     e(  7 -  7) =      4.68657  eV     1   --> B_2  D_4  S_4  
     e(  8 -  8) =      4.88045  eV     1   --> A_1  D_1  S_1  

 **************************************************************************

 **************************************************************************

                    xk=(   0.20000,   0.34641,   0.00000  )

     Band symmetry, C_2v (mm2)  point group:

     e(  1 -  1) =    -18.69811  eV     1   --> A_1  D_1  S_1  
     e(  2 -  2) =    -11.55390  eV     1   --> B_1  D_3  S_3  
     e(  3 -  3) =     -9.78356  eV     1   --> A_1  D_1  S_1  
     e(  4 -  4) =     -6.67793  eV     1   --> B_2  D_4  S_4  
     e(  5 -  5) =      1.41387  eV     1   --> A_2  D_2  S_2  
     e(  6 -  6) =      4.25527  eV     1   --> A_1  D_1  S_1  
     e(  7 -  7) =      4.91201  eV     1   --> B_2  D_4  S_4  
     e(  8 -  8) =      5.11433  eV     1   --> A_1  D_1  S_1  

 **************************************************************************

 **************************************************************************

                    xk=(   0.20666,   0.35795,   0.00000  )

     Band symmetry, C_2v (mm2)  point group:

     e(  1 -  1) =    -18.53147  eV     1   --> A_1  D_1  S_1  
     e(  2 -  2) =    -11.76749  eV     1   --> B_1  D_3  S_3  
     e(  3 -  3) =     -9.96506  eV     1   --> A_1  D_1  S_1  
     e(  4 -  4) =     -6.49715  eV     1   --> B_2  D_4  S_4  
     e(  5 -  5) =      1.16405  eV     1   --> A_2  D_2  S_2  
     e(  6 -  6) =      4.48973  eV     1   --> A_1  D_1  S_1  
     e(  7 -  7) =      5.14376  eV     1   --> B_2  D_4  S_4  
     e(  8 -  8) =      5.35609  eV     1   --> A_1  D_1  S_1  

 **************************************************************************

 **************************************************************************

                    xk=(   0.21333,   0.36950,   0.00000  )

     Band symmetry, C_2v (mm2)  point group:

     e(  1 -  1) =    -18.36031  eV     1   --> A_1  D_1  S_1  
     e(  2 -  2) =    -11.97750  eV     1   --> B_1  D_3  S_3  
     e(  3 -  3) =    -10.14481  eV     1   --> A_1  D_1  S_1  
     e(  4 -  4) =     -6.31260  eV     1   --> B_2  D_4  S_4  
     e(  5 -  5) =      0.91643  eV     1   --> A_2  D_2  S_2  
     e(  6 -  6) =      4.73138  eV     1   --> A_1  D_1  S_1  
     e(  7 -  7) =      5.38135  eV     1   --> B_2  D_4  S_4  
     e(  8 -  8) =      5.60570  eV     1   --> A_1  D_1  S_1  

 **************************************************************************

 **************************************************************************

                    xk=(   0.22000,   0.38105,   0.00000  )

     Band symmetry, C_2v (mm2)  point group:

     e(  1 -  1) =    -18.18480  eV     1   --> A_1  D_1  S_1  
     e(  2 -  2) =    -12.18378  eV     1   --> B_1  D_3  S_3  
     e(  3 -  3) =    -10.32240  eV     1   --> A_1  D_1  S_1  
     e(  4 -  4) =     -6.12458  eV     1   --> B_2  D_4  S_4  
     e(  5 -  5) =      0.67138  eV     1   --> A_2  D_2  S_2  
     e(  6 -  6) =      4.98009  eV     1   --> A_1  D_1  S_1  
     e(  7 -  7) =      5.62415  eV     1   --> B_2  D_4  S_4  
     e(  8 -  8) =      5.86315  eV     1   --> A_1  D_1  S_1  

 **************************************************************************

 **************************************************************************

                    xk=(   0.22666,   0.39259,   0.00000  )

     Band symmetry, C_2v (mm2)  point group:

     e(  1 -  1) =    -18.00514  eV     1   --> A_1  D_1  S_1  
     e(  2 -  2) =    -12.38619  eV     1   --> B_1  D_3  S_3  
     e(  3 -  3) =    -10.49741  eV     1   --> A_1  D_1  S_1  
     e(  4 -  4) =     -5.93343  eV     1   --> B_2  D_4  S_4  
     e(  5 -  5) =      0.42923  eV     1   --> A_2  D_2  S_2  
     e(  6 -  6) =      5.23570  eV     1   --> A_1  D_1  S_1  
     e(  7 -  7) =      5.87123  eV     1   --> B_2  D_4  S_4  
     e(  8 -  8) =      6.12841  eV     1   --> A_1  D_1  S_1  

 **************************************************************************

 **************************************************************************

                    xk=(   0.23333,   0.40414,   0.00000  )

     Band symmetry, C_2v (mm2)  point group:

     e(  1 -  1) =    -17.82153  eV     1   --> A_1  D_1  S_1  
     e(  2 -  2) =    -12.58461  eV     1   --> B_1  D_3  S_3  
     e(  3 -  3) =    -10.66943  eV     1   --> A_1  D_1  S_1  
     e(  4 -  4) =     -5.73952  eV     1   --> B_2  D_4  S_4  
     e(  5 -  5) =      0.19028  eV     1   --> A_2  D_2  S_2  
     e(  6 -  6) =      5.49800  eV     1   --> A_1  D_1  S_1  
     e(  7 -  7) =      6.12120  eV     1   --> B_2  D_4  S_4  
     e(  8 -  8) =      6.40144  eV     1   --> A_1  D_1  S_1  

 **************************************************************************

 **************************************************************************

                    xk=(   0.24000,   0.41569,   0.00000  )

     Band symmetry, C_2v (mm2)  point group:

     e(  1 -  1) =    -17.63425  eV     1   --> A_1  D_1  S_1  
     e(  2 -  2) =    -12.77893  eV     1   --> B_1  D_3  S_3  
     e(  3 -  3) =    -10.83802  eV     1   --> A_1  D_1  S_1  
     e(  4 -  4) =     -5.54323  eV     1   --> B_2  D_4  S_4  
     e(  5 -  5) =     -0.04519  eV     1   --> A_2  D_2  S_2  
     e(  6 -  6) =      5.76672  eV     1   --> A_1  D_1  S_1  
     e(  7 -  7) =      6.37196  eV     1   --> B_2  D_4  S_4  
     e(  8 -  8) =      6.68217  eV     1   --> A_1  D_1  S_1  

 **************************************************************************

 **************************************************************************

                    xk=(   0.24666,   0.42723,   0.00000  )

     Band symmetry, C_2v (mm2)  point group:

     e(  1 -  1) =    -17.44359  eV     1   --> A_1  D_1  S_1  
     e(  2 -  2) =    -12.96905  eV     1   --> B_1  D_3  S_3  
     e(  3 -  3) =    -11.00271  eV     1   --> A_1  D_1  S_1  
     e(  4 -  4) =     -5.34500  eV     1   --> B_2  D_4  S_4  
     e(  5 -  5) =     -0.27691  eV     1   --> A_2  D_2  S_2  
     e(  6 -  6) =      6.04150  eV     1   --> A_1  D_1  S_1  
     e(  7 -  7) =      6.62023  eV     1   --> B_2  D_4  S_4  
     e(  8 -  8) =      6.97053  eV     1   --> A_1  D_1  S_1  

 **************************************************************************

 **************************************************************************

                    xk=(   0.25333,   0.43878,   0.00000  )

     Band symmetry, C_2v (mm2)  point group:

     e(  1 -  1) =    -17.24992  eV     1   --> A_1  D_1  S_1  
     e(  2 -  2) =    -13.15487  eV     1   --> B_1  D_3  S_3  
     e(  3 -  3) =    -11.16302  eV     1   --> A_1  D_1  S_1  
     e(  4 -  4) =     -5.14531  eV     1   --> B_2  D_4  S_4  
     e(  5 -  5) =     -0.50464  eV     1   --> A_2  D_2  S_2  
     e(  6 -  6) =      6.32184  eV     1   --> A_1  D_1  S_1  
     e(  7 -  7) =      6.86079  eV     1   --> B_2  D_4  S_4  
     e(  8 -  8) =      7.26636  eV     1   --> A_1  D_1  S_1  

 **************************************************************************

 **************************************************************************

                    xk=(   0.26000,   0.45033,   0.00000  )

     Band symmetry, C_2v (mm2)  point group:

     e(  1 -  1) =    -17.05367  eV     1   --> A_1  D_1  S_1  
     e(  2 -  2) =    -13.33632  eV     1   --> B_1  D_3  S_3  
     e(  3 -  3) =    -11.31839  eV     1   --> A_1  D_1  S_1  
     e(  4 -  4) =     -4.94465  eV     1   --> B_2  D_4  S_4  
     e(  5 -  5) =     -0.72815  eV     1   --> A_2  D_2  S_2  
     e(  6 -  6) =      6.60702  eV     1   --> A_1  D_1  S_1  
     e(  7 -  7) =      7.08556  eV     1   --> B_2  D_4  S_4  
     e(  8 -  8) =      7.56939  eV     1   --> A_1  D_1  S_1  

 **************************************************************************

 **************************************************************************

                    xk=(   0.26666,   0.46188,   0.00000  )

     Band symmetry, C_2v (mm2)  point group:

     e(  1 -  1) =    -16.85538  eV     1   --> A_1  D_1  S_1  
     e(  2 -  2) =    -13.51331  eV     1   --> B_1  D_3  S_3  
     e(  3 -  3) =    -11.46821  eV     1   --> A_1  D_1  S_1  
     e(  4 -  4) =     -4.74359  eV     1   --> B_2  D_4  S_4  
     e(  5 -  5) =     -0.94724  eV     1   --> A_2  D_2  S_2  
     e(  6 -  6) =      6.89602  eV     1   --> A_1  D_1  S_1  
     e(  7 -  7) =      7.28296  eV     1   --> B_2  D_4  S_4  
     e(  8 -  8) =      7.87909  eV     1   --> A_1  D_1  S_1  

 **************************************************************************

 **************************************************************************

                    xk=(   0.27333,   0.47342,   0.00000  )

     Band symmetry, C_2v (mm2)  point group:

     e(  1 -  1) =    -16.65569  eV     1   --> A_1  D_1  S_1  
     e(  2 -  2) =    -13.68579  eV     1   --> B_1  D_3  S_3  
     e(  3 -  3) =    -11.61176  eV     1   --> A_1  D_1  S_1  
     e(  4 -  4) =     -4.54271  eV     1   --> B_2  D_4  S_4  
     e(  5 -  5) =     -1.16172  eV     1   --> A_2  D_2  S_2  
     e(  6 -  6) =      7.18728  eV     1   --> A_1  D_1  S_1  
     e(  7 -  7) =      7.43975  eV     1   --> B_2  D_4  S_4  
     e(  8 -  8) =      8.09324  eV     1   --> B_1  D_3  S_3  

 **************************************************************************

 **************************************************************************

                    xk=(   0.28000,   0.48497,   0.00000  )

     Band symmetry, C_2v (mm2)  point group:

     e(  1 -  1) =    -16.45542  eV     1   --> A_1  D_1  S_1  
     e(  2 -  2) =    -13.85369  eV     1   --> B_1  D_3  S_3  
     e(  3 -  3) =    -11.74820  eV     1   --> A_1  D_1  S_1  
     e(  4 -  4) =     -4.34265  eV     1   --> B_2  D_4  S_4  
     e(  5 -  5) =     -1.37140  eV     1   --> A_2  D_2  S_2  
     e(  6 -  6) =      7.47837  eV     1   --> A_1  D_1  S_1  
     e(  7 -  7) =      7.54695  eV     1   --> B_2  D_4  S_4  
     e(  8 -  8) =      8.19158  eV     1   --> B_1  D_3  S_3  

 **************************************************************************

 **************************************************************************

                    xk=(   0.28666,   0.49652,   0.00000  )

     Band symmetry, C_2v (mm2)  point group:

     e(  1 -  1) =    -16.25556  eV     1   --> A_1  D_1  S_1  
     e(  2 -  2) =    -14.01695  eV     1   --> B_1  D_3  S_3  
     e(  3 -  3) =    -11.87649  eV     1   --> A_1  D_1  S_1  
     e(  4 -  4) =     -4.14408  eV     1   --> B_2  D_4  S_4  
     e(  5 -  5) =     -1.57611  eV     1   --> A_2  D_2  S_2  
     e(  6 -  6) =      7.60599  eV     1   --> B_2  D_4  S_4  
     e(  7 -  7) =      7.76537  eV     1   --> A_1  D_1  S_1  
     e(  8 -  8) =      8.28833  eV     1   --> B_1  D_3  S_3  

 **************************************************************************

 **************************************************************************

                    xk=(   0.29333,   0.50806,   0.00000  )

     Band symmetry, C_2v (mm2)  point group:

     e(  1 -  1) =    -16.05739  eV     1   --> A_1  D_1  S_1  
     e(  2 -  2) =    -14.17553  eV     1   --> B_1  D_3  S_3  
     e(  3 -  3) =    -11.99539  eV     1   --> A_1  D_1  S_1  
     e(  4 -  4) =     -3.94772  eV     1   --> B_2  D_4  S_4  
     e(  5 -  5) =     -1.77572  eV     1   --> A_2  D_2  S_2  
     e(  6 -  6) =      7.62744  eV     1   --> B_2  D_4  S_4  
     e(  7 -  7) =      8.04186  eV     1   --> A_1  D_1  S_1  
     e(  8 -  8) =      8.38268  eV     1   --> B_1  D_3  S_3  

 **************************************************************************

 **************************************************************************

                    xk=(   0.30000,   0.51961,   0.00000  )

     Band symmetry, C_2v (mm2)  point group:

     e(  1 -  1) =    -15.86251  eV     1   --> A_1  D_1  S_1  
     e(  2 -  2) =    -14.32937  eV     1   --> B_1  D_3  S_3  
     e(  3 -  3) =    -12.10333  eV     1   --> A_1  D_1  S_1  
     e(  4 -  4) =     -3.75430  eV     1   --> B_2  D_4  S_4  
     e(  5 -  5) =     -1.97006  eV     1   --> A_2  D_2  S_2  
     e(  6 -  6) =      7.62454  eV     1   --> B_2  D_4  S_4  
     e(  7 -  7) =      8.29747  eV     1   --> A_1  D_1  S_1  
     e(  8 -  8) =      8.47358  eV     1   --> B_1  D_3  S_3  

 **************************************************************************

 **************************************************************************

                    xk=(   0.30666,   0.53116,   0.00000  )

     Band symmetry, C_2v (mm2)  point group:

     e(  1 -  1) =    -15.67293  eV     1   --> A_1  D_1  S_1  
     e(  2 -  2) =    -14.47845  eV     1   --> B_1  D_3  S_3  
     e(  3 -  3) =    -12.19835  eV     1   --> A_1  D_1  S_1  
     e(  4 -  4) =     -3.56461  eV     1   --> B_2  D_4  S_4  
     e(  5 -  5) =     -2.15901  eV     1   --> A_2  D_2  S_2  
     e(  6 -  6) =      7.60872  eV     1   --> B_2  D_4  S_4  
     e(  7 -  7) =      8.51735  eV     1   --> A_1  D_1  S_1  
     e(  8 -  8) =      8.55976  eV     1   --> B_1  D_3  S_3  

 **************************************************************************

 **************************************************************************

                    xk=(   0.31333,   0.54270,   0.00000  )

     Band symmetry, C_2v (mm2)  point group:

     e(  1 -  1) =    -15.49119  eV     1   --> A_1  D_1  S_1  
     e(  2 -  2) =    -14.62271  eV     1   --> B_1  D_3  S_3  
     e(  3 -  3) =    -12.27801  eV     1   --> A_1  D_1  S_1  
     e(  4 -  4) =     -3.37943  eV     1   --> B_2  D_4  S_4  
     e(  5 -  5) =     -2.34246  eV     1   --> A_2  D_2  S_2  
     e(  6 -  6) =      7.58841  eV     1   --> B_2  D_4  S_4  
     e(  7 -  7) =      8.63969  eV     1   --> B_1  D_3  S_3  
     e(  8 -  8) =      8.68547  eV     1   --> A_1  D_1  S_1  

 **************************************************************************

 **************************************************************************

                    xk=(   0.32000,   0.55425,   0.00000  )

     Band symmetry, C_2v (mm2)  point group:

     e(  1 -  1) =    -15.32040  eV     1   --> A_1  D_1  S_1  
     e(  2 -  2) =    -14.76213  eV     1   --> B_1  D_3  S_3  
     e(  3 -  3) =    -12.33934  eV     1   --> A_1  D_1  S_1  
     e(  4 -  4) =     -3.19955  eV     1   --> B_2  D_4  S_4  
     e(  5 -  5) =     -2.52027  eV     1   --> A_2  D_2  S_2  
     e(  6 -  6) =      7.56955  eV     1   --> B_2  D_4  S_4  
     e(  7 -  7) =      8.71157  eV     1   --> B_1  D_3  S_3  
     e(  8 -  8) =      8.79214  eV     1   --> A_1  D_1  S_1  

 **************************************************************************

 **************************************************************************

                    xk=(   0.32666,   0.56580,   0.00000  )

     Band symmetry, C_2v (mm2)  point group:

     e(  1 -  1) =    -15.16417  eV     1   --> A_1  D_1  S_1  
     e(  2 -  2) =    -14.89667  eV     1   --> B_1  D_3  S_3  
     e(  3 -  3) =    -12.37887  eV     1   --> A_1  D_1  S_1  
     e(  4 -  4) =     -3.02574  eV     1   --> B_2  D_4  S_4  
     e(  5 -  5) =     -2.69236  eV     1   --> A_2  D_2  S_2  
     e(  6 -  6) =      7.55625  eV     1   --> B_2  D_4  S_4  
     e(  7 -  7) =      8.77332  eV     1   --> B_1  D_3  S_3  
     e(  8 -  8) =      8.83681  eV     1   --> A_1  D_1  S_1  

 **************************************************************************

 **************************************************************************

                    xk=(   0.33333,   0.57734,   0.00000  )

     zone border point and non-symmorphic group 
     symmetry decomposition not available

 **************************************************************************

 **************************************************************************

                    xk=(   0.33889,   0.56772,   0.00000  )

     zone border point and non-symmorphic group 
     symmetry decomposition not available

 **************************************************************************

 **************************************************************************

                    xk=(   0.34444,   0.55810,   0.00000  )

     zone border point and non-symmorphic group 
     symmetry decomposition not available

 **************************************************************************

 **************************************************************************

                    xk=(   0.35000,   0.54848,   0.00000  )

     zone border point and non-symmorphic group 
     symmetry decomposition not available

 **************************************************************************

 **************************************************************************

                    xk=(   0.35555,   0.53886,   0.00000  )

     zone border point and non-symmorphic group 
     symmetry decomposition not available

 **************************************************************************

 **************************************************************************

                    xk=(   0.36111,   0.52923,   0.00000  )

     zone border point and non-symmorphic group 
     symmetry decomposition not available

 **************************************************************************

 **************************************************************************

                    xk=(   0.36666,   0.51961,   0.00000  )

     zone border point and non-symmorphic group 
     symmetry decomposition not available

 **************************************************************************

 **************************************************************************

                    xk=(   0.37222,   0.50999,   0.00000  )

     zone border point and non-symmorphic group 
     symmetry decomposition not available

 **************************************************************************

 **************************************************************************

                    xk=(   0.37778,   0.50037,   0.00000  )

     zone border point and non-symmorphic group 
     symmetry decomposition not available

 **************************************************************************

 **************************************************************************

                    xk=(   0.38333,   0.49074,   0.00000  )

     zone border point and non-symmorphic group 
     symmetry decomposition not available

 **************************************************************************

 **************************************************************************

                    xk=(   0.38889,   0.48112,   0.00000  )

     zone border point and non-symmorphic group 
     symmetry decomposition not available

 **************************************************************************

 **************************************************************************

                    xk=(   0.39444,   0.47150,   0.00000  )

     zone border point and non-symmorphic group 
     symmetry decomposition not available

 **************************************************************************

 **************************************************************************

                    xk=(   0.40000,   0.46188,   0.00000  )

     zone border point and non-symmorphic group 
     symmetry decomposition not available

 **************************************************************************

 **************************************************************************

                    xk=(   0.40555,   0.45225,   0.00000  )

     zone border point and non-symmorphic group 
     symmetry decomposition not available

 **************************************************************************

 **************************************************************************

                    xk=(   0.41111,   0.44263,   0.00000  )

     zone border point and non-symmorphic group 
     symmetry decomposition not available

 **************************************************************************

 **************************************************************************

                    xk=(   0.41667,   0.43301,   0.00000  )

     zone border point and non-symmorphic group 
     symmetry decomposition not available

 **************************************************************************

 **************************************************************************

                    xk=(   0.42222,   0.42339,   0.00000  )

     zone border point and non-symmorphic group 
     symmetry decomposition not available

 **************************************************************************

 **************************************************************************

                    xk=(   0.42778,   0.41377,   0.00000  )

     zone border point and non-symmorphic group 
     symmetry decomposition not available

 **************************************************************************

 **************************************************************************

                    xk=(   0.43333,   0.40414,   0.00000  )

     zone border point and non-symmorphic group 
     symmetry decomposition not available

 **************************************************************************

 **************************************************************************

                    xk=(   0.43889,   0.39452,   0.00000  )

     zone border point and non-symmorphic group 
     symmetry decomposition not available

 **************************************************************************

 **************************************************************************

                    xk=(   0.44444,   0.38490,   0.00000  )

     zone border point and non-symmorphic group 
     symmetry decomposition not available

 **************************************************************************

 **************************************************************************

                    xk=(   0.45000,   0.37528,   0.00000  )

     zone border point and non-symmorphic group 
     symmetry decomposition not available

 **************************************************************************

 **************************************************************************

                    xk=(   0.45555,   0.36565,   0.00000  )

     zone border point and non-symmorphic group 
     symmetry decomposition not available

 **************************************************************************

 **************************************************************************

                    xk=(   0.46111,   0.35603,   0.00000  )

     zone border point and non-symmorphic group 
     symmetry decomposition not available

 **************************************************************************

 **************************************************************************

                    xk=(   0.46667,   0.34641,   0.00000  )

     zone border point and non-symmorphic group 
     symmetry decomposition not available

 **************************************************************************

 **************************************************************************

                    xk=(   0.47222,   0.33679,   0.00000  )

     zone border point and non-symmorphic group 
     symmetry decomposition not available

 **************************************************************************

 **************************************************************************

                    xk=(   0.47778,   0.32716,   0.00000  )

     zone border point and non-symmorphic group 
     symmetry decomposition not available

 **************************************************************************

 **************************************************************************

                    xk=(   0.48333,   0.31754,   0.00000  )

     zone border point and non-symmorphic group 
     symmetry decomposition not available

 **************************************************************************

 **************************************************************************

                    xk=(   0.48889,   0.30792,   0.00000  )

     zone border point and non-symmorphic group 
     symmetry decomposition not available

 **************************************************************************

 **************************************************************************

                    xk=(   0.49444,   0.29830,   0.00000  )

     zone border point and non-symmorphic group 
     symmetry decomposition not available

 **************************************************************************

 **************************************************************************

                    xk=(   0.50000,   0.28868,   0.00000  )

     zone border point and non-symmorphic group 
     symmetry decomposition not available

 **************************************************************************

 **************************************************************************

                    xk=(   0.49000,   0.28290,   0.00000  )

     point group C_2v (mm2) 
     there are  4 classes
     the character table:

       E     C2    s_v   s_v' 
A_1    1.00  1.00  1.00  1.00
A_2    1.00  1.00 -1.00 -1.00
B_1    1.00 -1.00  1.00 -1.00
B_2    1.00 -1.00 -1.00  1.00

     the symmetry operations in each class and the name of the first element:

     E        1
                                                                 
     C2       2
                                                                 
     s_v      3
                                                                 
     s_v'     4
                                                                 

     Band symmetry, C_2v (mm2)  point group:

     e(  1 -  1) =    -16.65350  eV     1   --> A_1  D_1  S_1  
     e(  2 -  2) =    -15.18239  eV     1   --> A_1  D_1  S_1  
     e(  3 -  3) =     -8.87904  eV     1   --> B_1  D_3  S_3  
     e(  4 -  4) =     -4.95679  eV     1   --> B_2  D_4  S_4  
     e(  5 -  5) =     -1.24230  eV     1   --> B_2  D_4  S_4  
     e(  6 -  6) =      3.14316  eV     1   --> A_1  D_1  S_1  
     e(  7 -  7) =      7.67490  eV     1   --> A_1  D_1  S_1  
     e(  8 -  8) =      8.24680  eV     1   --> A_1  D_1  S_1  

 **************************************************************************

 **************************************************************************

                    xk=(   0.48000,   0.27713,   0.00000  )

     Band symmetry, C_2v (mm2)  point group:

     e(  1 -  1) =    -16.72823  eV     1   --> A_1  D_1  S_1  
     e(  2 -  2) =    -15.09790  eV     1   --> A_1  D_1  S_1  
     e(  3 -  3) =     -8.87282  eV     1   --> B_1  D_3  S_3  
     e(  4 -  4) =     -4.99540  eV     1   --> B_2  D_4  S_4  
     e(  5 -  5) =     -1.19465  eV     1   --> B_2  D_4  S_4  
     e(  6 -  6) =      3.14729  eV     1   --> A_1  D_1  S_1  
     e(  7 -  7) =      7.40945  eV     1   --> A_1  D_1  S_1  
     e(  8 -  8) =      8.10970  eV     1   --> B_2  D_4  S_4  

 **************************************************************************

 **************************************************************************

                    xk=(   0.47000,   0.27135,   0.00000  )

     Band symmetry, C_2v (mm2)  point group:

     e(  1 -  1) =    -16.83771  eV     1   --> A_1  D_1  S_1  
     e(  2 -  2) =    -14.97215  eV     1   --> A_1  D_1  S_1  
     e(  3 -  3) =     -8.86246  eV     1   --> B_1  D_3  S_3  
     e(  4 -  4) =     -5.05755  eV     1   --> B_2  D_4  S_4  
     e(  5 -  5) =     -1.11745  eV     1   --> B_2  D_4  S_4  
     e(  6 -  6) =      3.15415  eV     1   --> A_1  D_1  S_1  
     e(  7 -  7) =      7.14464  eV     1   --> A_1  D_1  S_1  
     e(  8 -  8) =      7.84620  eV     1   --> B_2  D_4  S_4  

 **************************************************************************

 **************************************************************************

                    xk=(   0.46000,   0.26558,   0.00000  )

     Band symmetry, C_2v (mm2)  point group:

     e(  1 -  1) =    -16.96943  eV     1   --> A_1  D_1  S_1  
     e(  2 -  2) =    -14.81769  eV     1   --> A_1  D_1  S_1  
     e(  3 -  3) =     -8.84796  eV     1   --> B_1  D_3  S_3  
     e(  4 -  4) =     -5.14042  eV     1   --> B_2  D_4  S_4  
     e(  5 -  5) =     -1.01358  eV     1   --> B_2  D_4  S_4  
     e(  6 -  6) =      3.16373  eV     1   --> A_1  D_1  S_1  
     e(  7 -  7) =      6.88331  eV     1   --> A_1  D_1  S_1  
     e(  8 -  8) =      7.58454  eV     1   --> B_2  D_4  S_4  

 **************************************************************************

 **************************************************************************

                    xk=(   0.45000,   0.25981,   0.00000  )

     Band symmetry, C_2v (mm2)  point group:

     e(  1 -  1) =    -17.11443  eV     1   --> A_1  D_1  S_1  
     e(  2 -  2) =    -14.64350  eV     1   --> A_1  D_1  S_1  
     e(  3 -  3) =     -8.82936  eV     1   --> B_1  D_3  S_3  
     e(  4 -  4) =     -5.24077  eV     1   --> B_2  D_4  S_4  
     e(  5 -  5) =     -0.88631  eV     1   --> B_2  D_4  S_4  
     e(  6 -  6) =      3.17603  eV     1   --> A_1  D_1  S_1  
     e(  7 -  7) =      6.62623  eV     1   --> A_1  D_1  S_1  
     e(  8 -  8) =      7.32637  eV     1   --> B_2  D_4  S_4  

 **************************************************************************

 **************************************************************************

                    xk=(   0.44000,   0.25403,   0.00000  )

     Band symmetry, C_2v (mm2)  point group:

     e(  1 -  1) =    -17.26694  eV     1   --> A_1  D_1  S_1  
     e(  2 -  2) =    -14.45539  eV     1   --> A_1  D_1  S_1  
     e(  3 -  3) =     -8.80667  eV     1   --> B_1  D_3  S_3  
     e(  4 -  4) =     -5.35536  eV     1   --> B_2  D_4  S_4  
     e(  5 -  5) =     -0.73897  eV     1   --> B_2  D_4  S_4  
     e(  6 -  6) =      3.19101  eV     1   --> A_1  D_1  S_1  
     e(  7 -  7) =      6.37376  eV     1   --> A_1  D_1  S_1  
     e(  8 -  8) =      7.07240  eV     1   --> B_2  D_4  S_4  

 **************************************************************************

 **************************************************************************

                    xk=(   0.43000,   0.24826,   0.00000  )

     Band symmetry, C_2v (mm2)  point group:

     e(  1 -  1) =    -17.42333  eV     1   --> A_1  D_1  S_1  
     e(  2 -  2) =    -14.25703  eV     1   --> A_1  D_1  S_1  
     e(  3 -  3) =     -8.77992  eV     1   --> B_1  D_3  S_3  
     e(  4 -  4) =     -5.48120  eV     1   --> B_2  D_4  S_4  
     e(  5 -  5) =     -0.57465  eV     1   --> B_2  D_4  S_4  
     e(  6 -  6) =      3.20864  eV     1   --> A_1  D_1  S_1  
     e(  7 -  7) =      6.12614  eV     1   --> A_1  D_1  S_1  
     e(  8 -  8) =      6.82304  eV     1   --> B_2  D_4  S_4  

 **************************************************************************

 **************************************************************************

                    xk=(   0.42000,   0.24249,   0.00000  )

     Band symmetry, C_2v (mm2)  point group:

     e(  1 -  1) =    -17.58129  eV     1   --> A_1  D_1  S_1  
     e(  2 -  2) =    -14.05078  eV     1   --> A_1  D_1  S_1  
     e(  3 -  3) =     -8.74915  eV     1   --> B_1  D_3  S_3  
     e(  4 -  4) =     -5.61564  eV     1   --> B_2  D_4  S_4  
     e(  5 -  5) =     -0.39608  eV     1   --> B_2  D_4  S_4  
     e(  6 -  6) =      3.22889  eV     1   --> A_1  D_1  S_1  
     e(  7 -  7) =      5.88354  eV     1   --> A_1  D_1  S_1  
     e(  8 -  8) =      6.57855  eV     1   --> B_2  D_4  S_4  

 **************************************************************************

 **************************************************************************

                    xk=(   0.41000,   0.23671,   0.00000  )

     Band symmetry, C_2v (mm2)  point group:

     e(  1 -  1) =    -17.73931  eV     1   --> A_1  D_1  S_1  
     e(  2 -  2) =    -13.83823  eV     1   --> A_1  D_1  S_1  
     e(  3 -  3) =     -8.71439  eV     1   --> B_1  D_3  S_3  
     e(  4 -  4) =     -5.75646  eV     1   --> B_2  D_4  S_4  
     e(  5 -  5) =     -0.20562  eV     1   --> B_2  D_4  S_4  
     e(  6 -  6) =      3.25171  eV     1   --> A_1  D_1  S_1  
     e(  7 -  7) =      5.64609  eV     1   --> A_1  D_1  S_1  
     e(  8 -  8) =      6.33911  eV     1   --> B_2  D_4  S_4  

 **************************************************************************

 **************************************************************************

                    xk=(   0.40000,   0.23094,   0.00000  )

     Band symmetry, C_2v (mm2)  point group:

     e(  1 -  1) =    -17.89636  eV     1   --> A_1  D_1  S_1  
     e(  2 -  2) =    -13.62047  eV     1   --> A_1  D_1  S_1  
     e(  3 -  3) =     -8.67569  eV     1   --> B_1  D_3  S_3  
     e(  4 -  4) =     -5.90179  eV     1   --> B_2  D_4  S_4  
     e(  5 -  5) =     -0.00527  eV     1   --> B_2  D_4  S_4  
     e(  6 -  6) =      3.27704  eV     1   --> A_1  D_1  S_1  
     e(  7 -  7) =      5.41390  eV     1   --> A_1  D_1  S_1  
     e(  8 -  8) =      6.10487  eV     1   --> B_2  D_4  S_4  

 **************************************************************************

 **************************************************************************

                    xk=(   0.39000,   0.22517,   0.00000  )

     Band symmetry, C_2v (mm2)  point group:

     e(  1 -  1) =    -18.05173  eV     1   --> A_1  D_1  S_1  
     e(  2 -  2) =    -13.39829  eV     1   --> A_1  D_1  S_1  
     e(  3 -  3) =     -8.63311  eV     1   --> B_1  D_3  S_3  
     e(  4 -  4) =     -6.05010  eV     1   --> B_2  D_4  S_4  
     e(  5 -  5) =      0.20328  eV     1   --> B_2  D_4  S_4  
     e(  6 -  6) =      3.30483  eV     1   --> A_1  D_1  S_1  
     e(  7 -  7) =      5.18706  eV     1   --> A_1  D_1  S_1  
     e(  8 -  8) =      5.87593  eV     1   --> B_2  D_4  S_4  

 **************************************************************************

 **************************************************************************

                    xk=(   0.38000,   0.21939,   0.00000  )

     Band symmetry, C_2v (mm2)  point group:

     e(  1 -  1) =    -18.20490  eV     1   --> A_1  D_1  S_1  
     e(  2 -  2) =    -13.17232  eV     1   --> A_1  D_1  S_1  
     e(  3 -  3) =     -8.58671  eV     1   --> B_1  D_3  S_3  
     e(  4 -  4) =     -6.20013  eV     1   --> B_2  D_4  S_4  
     e(  5 -  5) =      0.41859  eV     1   --> B_2  D_4  S_4  
     e(  6 -  6) =      3.33500  eV     1   --> A_1  D_1  S_1  
     e(  7 -  7) =      4.96568  eV     1   --> A_1  D_1  S_1  
     e(  8 -  8) =      5.65240  eV     1   --> B_2  D_4  S_4  

 **************************************************************************

 **************************************************************************

                    xk=(   0.37000,   0.21362,   0.00000  )

     Band symmetry, C_2v (mm2)  point group:

     e(  1 -  1) =    -18.35550  eV     1   --> A_1  D_1  S_1  
     e(  2 -  2) =    -12.94301  eV     1   --> A_1  D_1  S_1  
     e(  3 -  3) =     -8.53655  eV     1   --> B_1  D_3  S_3  
     e(  4 -  4) =     -6.35086  eV     1   --> B_2  D_4  S_4  
     e(  5 -  5) =      0.63945  eV     1   --> B_2  D_4  S_4  
     e(  6 -  6) =      3.36743  eV     1   --> A_1  D_1  S_1  
     e(  7 -  7) =      4.74983  eV     1   --> A_1  D_1  S_1  
     e(  8 -  8) =      5.43434  eV     1   --> B_2  D_4  S_4  

 **************************************************************************

 **************************************************************************

                    xk=(   0.36000,   0.20785,   0.00000  )

     Band symmetry, C_2v (mm2)  point group:

     e(  1 -  1) =    -18.50324  eV     1   --> A_1  D_1  S_1  
     e(  2 -  2) =    -12.71079  eV     1   --> A_1  D_1  S_1  
     e(  3 -  3) =     -8.48270  eV     1   --> B_1  D_3  S_3  
     e(  4 -  4) =     -6.50145  eV     1   --> B_2  D_4  S_4  
     e(  5 -  5) =      0.86481  eV     1   --> B_2  D_4  S_4  
     e(  6 -  6) =      3.40200  eV     1   --> A_1  D_1  S_1  
     e(  7 -  7) =      4.53963  eV     1   --> A_1  D_1  S_1  
     e(  8 -  8) =      5.22183  eV     1   --> B_2  D_4  S_4  

 **************************************************************************

 **************************************************************************

                    xk=(   0.35000,   0.20207,   0.00000  )

     Band symmetry, C_2v (mm2)  point group:

     e(  1 -  1) =    -18.64790  eV     1   --> A_1  D_1  S_1  
     e(  2 -  2) =    -12.47601  eV     1   --> A_1  D_1  S_1  
     e(  3 -  3) =     -8.42526  eV     1   --> B_1  D_3  S_3  
     e(  4 -  4) =     -6.65118  eV     1   --> B_2  D_4  S_4  
     e(  5 -  5) =      1.09372  eV     1   --> B_2  D_4  S_4  
     e(  6 -  6) =      3.43848  eV     1   --> A_1  D_1  S_1  
     e(  7 -  7) =      4.33525  eV     1   --> A_1  D_1  S_1  
     e(  8 -  8) =      5.01492  eV     1   --> B_2  D_4  S_4  

 **************************************************************************

 **************************************************************************

                    xk=(   0.34000,   0.19630,   0.00000  )

     Band symmetry, C_2v (mm2)  point group:

     e(  1 -  1) =    -18.78929  eV     1   --> A_1  D_1  S_1  
     e(  2 -  2) =    -12.23898  eV     1   --> A_1  D_1  S_1  
     e(  3 -  3) =     -8.36431  eV     1   --> B_1  D_3  S_3  
     e(  4 -  4) =     -6.79950  eV     1   --> B_2  D_4  S_4  
     e(  5 -  5) =      1.32536  eV     1   --> B_2  D_4  S_4  
     e(  6 -  6) =      3.47649  eV     1   --> A_1  D_1  S_1  
     e(  7 -  7) =      4.13703  eV     1   --> A_1  D_1  S_1  
     e(  8 -  8) =      4.81368  eV     1   --> B_2  D_4  S_4  

 **************************************************************************

 **************************************************************************

                    xk=(   0.33000,   0.19053,   0.00000  )

     Band symmetry, C_2v (mm2)  point group:

     e(  1 -  1) =    -18.92728  eV     1   --> A_1  D_1  S_1  
     e(  2 -  2) =    -12.00001  eV     1   --> A_1  D_1  S_1  
     e(  3 -  3) =     -8.29995  eV     1   --> B_1  D_3  S_3  
     e(  4 -  4) =     -6.94590  eV     1   --> B_2  D_4  S_4  
     e(  5 -  5) =      1.55896  eV     1   --> B_2  D_4  S_4  
     e(  6 -  6) =      3.51496  eV     1   --> A_1  D_1  S_1  
     e(  7 -  7) =      3.94594  eV     1   --> A_1  D_1  S_1  
     e(  8 -  8) =      4.61816  eV     1   --> B_2  D_4  S_4  

 **************************************************************************

 **************************************************************************

                    xk=(   0.32000,   0.18475,   0.00000  )

     Band symmetry, C_2v (mm2)  point group:

     e(  1 -  1) =    -19.06175  eV     1   --> A_1  D_1  S_1  
     e(  2 -  2) =    -11.75937  eV     1   --> A_1  D_1  S_1  
     e(  3 -  3) =     -8.23230  eV     1   --> B_1  D_3  S_3  
     e(  4 -  4) =     -7.08999  eV     1   --> B_2  D_4  S_4  
     e(  5 -  5) =      1.79379  eV     1   --> B_2  D_4  S_4  
     e(  6 -  6) =      3.54899  eV     1   --> A_1  D_1  S_1  
     e(  7 -  7) =      3.76678  eV     1   --> A_1  D_1  S_1  
     e(  8 -  8) =      4.42845  eV     1   --> B_2  D_4  S_4  

 **************************************************************************

 **************************************************************************

                    xk=(   0.31000,   0.17898,   0.00000  )

     Band symmetry, C_2v (mm2)  point group:

     e(  1 -  1) =    -19.19260  eV     1   --> A_1  D_1  S_1  
     e(  2 -  2) =    -11.51737  eV     1   --> A_1  D_1  S_1  
     e(  3 -  3) =     -8.16148  eV     1   --> B_1  D_3  S_3  
     e(  4 -  4) =     -7.23143  eV     1   --> B_2  D_4  S_4  
     e(  5 -  5) =      2.02915  eV     1   --> B_2  D_4  S_4  
     e(  6 -  6) =      3.52545  eV     1   --> A_1  D_1  S_1  
     e(  7 -  7) =      3.65255  eV     1   --> A_1  D_1  S_1  
     e(  8 -  8) =      4.24464  eV     1   --> B_2  D_4  S_4  

 **************************************************************************

 **************************************************************************

                    xk=(   0.30000,   0.17321,   0.00000  )

     Band symmetry, C_2v (mm2)  point group:

     e(  1 -  1) =    -19.31975  eV     1   --> A_1  D_1  S_1  
     e(  2 -  2) =    -11.27429  eV     1   --> A_1  D_1  S_1  
     e(  3 -  3) =     -8.08763  eV     1   --> B_1  D_3  S_3  
     e(  4 -  4) =     -7.36991  eV     1   --> B_2  D_4  S_4  
     e(  5 -  5) =      2.26428  eV     1   --> B_2  D_4  S_4  
     e(  6 -  6) =      3.37674  eV     1   --> A_1  D_1  S_1  
     e(  7 -  7) =      3.67062  eV     1   --> A_1  D_1  S_1  
     e(  8 -  8) =      4.06690  eV     1   --> B_2  D_4  S_4  

 **************************************************************************

 **************************************************************************

                    xk=(   0.29000,   0.16743,   0.00000  )

     Band symmetry, C_2v (mm2)  point group:

     e(  1 -  1) =    -19.44313  eV     1   --> A_1  D_1  S_1  
     e(  2 -  2) =    -11.03043  eV     1   --> A_1  D_1  S_1  
     e(  3 -  3) =     -8.01090  eV     1   --> B_1  D_3  S_3  
     e(  4 -  4) =     -7.50518  eV     1   --> B_2  D_4  S_4  
     e(  5 -  5) =      2.49830  eV     1   --> B_2  D_4  S_4  
     e(  6 -  6) =      3.21074  eV     1   --> A_1  D_1  S_1  
     e(  7 -  7) =      3.71268  eV     1   --> A_1  D_1  S_1  
     e(  8 -  8) =      3.89553  eV     1   --> B_2  D_4  S_4  

 **************************************************************************

 **************************************************************************

                    xk=(   0.28000,   0.16166,   0.00000  )

     Band symmetry, C_2v (mm2)  point group:

     e(  1 -  1) =    -19.56268  eV     1   --> A_1  D_1  S_1  
     e(  2 -  2) =    -10.78609  eV     1   --> A_1  D_1  S_1  
     e(  3 -  3) =     -7.93144  eV     1   --> B_1  D_3  S_3  
     e(  4 -  4) =     -7.63704  eV     1   --> B_2  D_4  S_4  
     e(  5 -  5) =      2.72990  eV     1   --> B_2  D_4  S_4  
     e(  6 -  6) =      3.04717  eV     1   --> A_1  D_1  S_1  
     e(  7 -  7) =      3.73128  eV     1   --> B_2  D_4  S_4  
     e(  8 -  8) =      3.75636  eV     1   --> A_1  D_1  S_1  

 **************************************************************************

 **************************************************************************

                    xk=(   0.27000,   0.15588,   0.00000  )

     Band symmetry, C_2v (mm2)  point group:

     e(  1 -  1) =    -19.67834  eV     1   --> A_1  D_1  S_1  
     e(  2 -  2) =    -10.54159  eV     1   --> A_1  D_1  S_1  
     e(  3 -  3) =     -7.84945  eV     1   --> B_1  D_3  S_3  
     e(  4 -  4) =     -7.76529  eV     1   --> B_2  D_4  S_4  
     e(  5 -  5) =      2.88833  eV     1   --> A_1  D_1  S_1  
     e(  6 -  6) =      2.95595  eV     1   --> B_2  D_4  S_4  
     e(  7 -  7) =      3.57665  eV     1   --> B_2  D_4  S_4  
     e(  8 -  8) =      3.70705  eV     1   --> A_1  D_1  S_1  

 **************************************************************************

 **************************************************************************

                    xk=(   0.26000,   0.15011,   0.00000  )

     Band symmetry, C_2v (mm2)  point group:

     e(  1 -  1) =    -19.79007  eV     1   --> A_1  D_1  S_1  
     e(  2 -  2) =    -10.29729  eV     1   --> A_1  D_1  S_1  
     e(  3 -  3) =     -7.88977  eV     1   --> B_2  D_4  S_4  
     e(  4 -  4) =     -7.76511  eV     1   --> B_1  D_3  S_3  
     e(  5 -  5) =      2.73478  eV     1   --> A_1  D_1  S_1  
     e(  6 -  6) =      3.16019  eV     1   --> B_2  D_4  S_4  
     e(  7 -  7) =      3.44722  eV     1   --> B_2  D_4  S_4  
     e(  8 -  8) =      3.55386  eV     1   --> A_1  D_1  S_1  

 **************************************************************************

 **************************************************************************

                    xk=(   0.25000,   0.14434,   0.00000  )

     Band symmetry, C_2v (mm2)  point group:

     e(  1 -  1) =    -19.89783  eV     1   --> A_1  D_1  S_1  
     e(  2 -  2) =    -10.05354  eV     1   --> A_1  D_1  S_1  
     e(  3 -  3) =     -8.01033  eV     1   --> B_2  D_4  S_4  
     e(  4 -  4) =     -7.67863  eV     1   --> B_1  D_3  S_3  
     e(  5 -  5) =      2.58677  eV     1   --> A_1  D_1  S_1  
     e(  6 -  6) =      3.20565  eV     1   --> B_2  D_4  S_4  
     e(  7 -  7) =      3.40300  eV     1   --> A_1  D_1  S_1  
     e(  8 -  8) =      3.47898  eV     1   --> B_2  D_4  S_4  

 **************************************************************************

 **************************************************************************

                    xk=(   0.24000,   0.13856,   0.00000  )

     Band symmetry, C_2v (mm2)  point group:

     e(  1 -  1) =    -20.00157  eV     1   --> A_1  D_1  S_1  
     e(  2 -  2) =     -9.81073  eV     1   --> A_1  D_1  S_1  
     e(  3 -  3) =     -8.12685  eV     1   --> B_2  D_4  S_4  
     e(  4 -  4) =     -7.59026  eV     1   --> B_1  D_3  S_3  
     e(  5 -  5) =      2.44437  eV     1   --> A_1  D_1  S_1  
     e(  6 -  6) =      3.08994  eV     1   --> B_2  D_4  S_4  
     e(  7 -  7) =      3.25755  eV     1   --> A_1  D_1  S_1  
     e(  8 -  8) =      3.67225  eV     1   --> B_2  D_4  S_4  

 **************************************************************************

 **************************************************************************

                    xk=(   0.23000,   0.13279,   0.00000  )

     Band symmetry, C_2v (mm2)  point group:

     e(  1 -  1) =    -20.10128  eV     1   --> A_1  D_1  S_1  
     e(  2 -  2) =     -9.56928  eV     1   --> A_1  D_1  S_1  
     e(  3 -  3) =     -8.23921  eV     1   --> B_2  D_4  S_4  
     e(  4 -  4) =     -7.50025  eV     1   --> B_1  D_3  S_3  
     e(  5 -  5) =      2.30767  eV     1   --> A_1  D_1  S_1  
     e(  6 -  6) =      2.95885  eV     1   --> B_2  D_4  S_4  
     e(  7 -  7) =      3.11787  eV     1   --> A_1  D_1  S_1  
     e(  8 -  8) =      3.87090  eV     1   --> B_2  D_4  S_4  

 **************************************************************************

 **************************************************************************

                    xk=(   0.22000,   0.12702,   0.00000  )

     Band symmetry, C_2v (mm2)  point group:

     e(  1 -  1) =    -20.19691  eV     1   --> A_1  D_1  S_1  
     e(  2 -  2) =     -9.32964  eV     1   --> A_1  D_1  S_1  
     e(  3 -  3) =     -8.34732  eV     1   --> B_2  D_4  S_4  
     e(  4 -  4) =     -7.40887  eV     1   --> B_1  D_3  S_3  
     e(  5 -  5) =      2.17669  eV     1   --> A_1  D_1  S_1  
     e(  6 -  6) =      2.82953  eV     1   --> B_2  D_4  S_4  
     e(  7 -  7) =      2.98406  eV     1   --> A_1  D_1  S_1  
     e(  8 -  8) =      3.93765  eV     1   --> B_2  D_4  S_4  

 **************************************************************************

 **************************************************************************

                    xk=(   0.21000,   0.12124,   0.00000  )

     Band symmetry, C_2v (mm2)  point group:

     e(  1 -  1) =    -20.28844  eV     1   --> A_1  D_1  S_1  
     e(  2 -  2) =     -9.09228  eV     1   --> A_1  D_1  S_1  
     e(  3 -  3) =     -8.45109  eV     1   --> B_2  D_4  S_4  
     e(  4 -  4) =     -7.31642  eV     1   --> B_1  D_3  S_3  
     e(  5 -  5) =      2.05145  eV     1   --> A_1  D_1  S_1  
     e(  6 -  6) =      2.70464  eV     1   --> B_2  D_4  S_4  
     e(  7 -  7) =      2.85616  eV     1   --> A_1  D_1  S_1  
     e(  8 -  8) =      3.83594  eV     1   --> B_2  D_4  S_4  

 **************************************************************************

 **************************************************************************

                    xk=(   0.20000,   0.11547,   0.00000  )

     Band symmetry, C_2v (mm2)  point group:

     e(  1 -  1) =    -20.37585  eV     1   --> A_1  D_1  S_1  
     e(  2 -  2) =     -8.85773  eV     1   --> A_1  D_1  S_1  
     e(  3 -  3) =     -8.55043  eV     1   --> B_2  D_4  S_4  
     e(  4 -  4) =     -7.22324  eV     1   --> B_1  D_3  S_3  
     e(  5 -  5) =      1.93198  eV     1   --> A_1  D_1  S_1  
     e(  6 -  6) =      2.58496  eV     1   --> B_2  D_4  S_4  
     e(  7 -  7) =      2.73419  eV     1   --> A_1  D_1  S_1  
     e(  8 -  8) =      3.72114  eV     1   --> B_2  D_4  S_4  

 **************************************************************************

 **************************************************************************

                    xk=(   0.19000,   0.10970,   0.00000  )

     Band symmetry, C_2v (mm2)  point group:

     e(  1 -  1) =    -20.45912  eV     1   --> A_1  D_1  S_1  
     e(  2 -  2) =     -8.64528  eV     1   --> B_2  D_4  S_4  
     e(  3 -  3) =     -8.62654  eV     1   --> A_1  D_1  S_1  
     e(  4 -  4) =     -7.12969  eV     1   --> B_1  D_3  S_3  
     e(  5 -  5) =      1.81829  eV     1   --> A_1  D_1  S_1  
     e(  6 -  6) =      2.47078  eV     1   --> B_2  D_4  S_4  
     e(  7 -  7) =      2.61815  eV     1   --> A_1  D_1  S_1  
     e(  8 -  8) =      3.60902  eV     1   --> B_2  D_4  S_4  

 **************************************************************************

 **************************************************************************

                    xk=(   0.18000,   0.10392,   0.00000  )

     Band symmetry, C_2v (mm2)  point group:

     e(  1 -  1) =    -20.53822  eV     1   --> A_1  D_1  S_1  
     e(  2 -  2) =     -8.73557  eV     1   --> B_2  D_4  S_4  
     e(  3 -  3) =     -8.39933  eV     1   --> A_1  D_1  S_1  
     e(  4 -  4) =     -7.03614  eV     1   --> B_1  D_3  S_3  
     e(  5 -  5) =      1.71039  eV     1   --> A_1  D_1  S_1  
     e(  6 -  6) =      2.36226  eV     1   --> B_2  D_4  S_4  
     e(  7 -  7) =      2.50805  eV     1   --> A_1  D_1  S_1  
     e(  8 -  8) =      3.50170  eV     1   --> B_2  D_4  S_4  

 **************************************************************************

 **************************************************************************

                    xk=(   0.17000,   0.09815,   0.00000  )

     Band symmetry, C_2v (mm2)  point group:

     e(  1 -  1) =    -20.61313  eV     1   --> A_1  D_1  S_1  
     e(  2 -  2) =     -8.82125  eV     1   --> B_2  D_4  S_4  
     e(  3 -  3) =     -8.17674  eV     1   --> A_1  D_1  S_1  
     e(  4 -  4) =     -6.94301  eV     1   --> B_1  D_3  S_3  
     e(  5 -  5) =      1.60829  eV     1   --> A_1  D_1  S_1  
     e(  6 -  6) =      2.25946  eV     1   --> B_2  D_4  S_4  
     e(  7 -  7) =      2.40389  eV     1   --> A_1  D_1  S_1  
     e(  8 -  8) =      3.39974  eV     1   --> B_2  D_4  S_4  

 **************************************************************************

 **************************************************************************

                    xk=(   0.16000,   0.09238,   0.00000  )

     Band symmetry, C_2v (mm2)  point group:

     e(  1 -  1) =    -20.68384  eV     1   --> A_1  D_1  S_1  
     e(  2 -  2) =     -8.90227  eV     1   --> B_2  D_4  S_4  
     e(  3 -  3) =     -7.95948  eV     1   --> A_1  D_1  S_1  
     e(  4 -  4) =     -6.85074  eV     1   --> B_1  D_3  S_3  
     e(  5 -  5) =      1.51199  eV     1   --> A_1  D_1  S_1  
     e(  6 -  6) =      2.16245  eV     1   --> B_2  D_4  S_4  
     e(  7 -  7) =      2.30568  eV     1   --> A_1  D_1  S_1  
     e(  8 -  8) =      3.30337  eV     1   --> B_2  D_4  S_4  

 **************************************************************************

 **************************************************************************

                    xk=(   0.15000,   0.08660,   0.00000  )

     Band symmetry, C_2v (mm2)  point group:

     e(  1 -  1) =    -20.75034  eV     1   --> A_1  D_1  S_1  
     e(  2 -  2) =     -8.97857  eV     1   --> B_2  D_4  S_4  
     e(  3 -  3) =     -7.74830  eV     1   --> A_1  D_1  S_1  
     e(  4 -  4) =     -6.75982  eV     1   --> B_1  D_3  S_3  
     e(  5 -  5) =      1.42151  eV     1   --> A_1  D_1  S_1  
     e(  6 -  6) =      2.07125  eV     1   --> B_2  D_4  S_4  
     e(  7 -  7) =      2.21342  eV     1   --> A_1  D_1  S_1  
     e(  8 -  8) =      3.21270  eV     1   --> B_2  D_4  S_4  

 **************************************************************************

 **************************************************************************

                    xk=(   0.14000,   0.08083,   0.00000  )

     Band symmetry, C_2v (mm2)  point group:

     e(  1 -  1) =    -20.81260  eV     1   --> A_1  D_1  S_1  
     e(  2 -  2) =     -9.05012  eV     1   --> B_2  D_4  S_4  
     e(  3 -  3) =     -7.54401  eV     1   --> A_1  D_1  S_1  
     e(  4 -  4) =     -6.67076  eV     1   --> B_1  D_3  S_3  
     e(  5 -  5) =      1.33685  eV     1   --> A_1  D_1  S_1  
     e(  6 -  6) =      1.98589  eV     1   --> B_2  D_4  S_4  
     e(  7 -  7) =      2.12710  eV     1   --> A_1  D_1  S_1  
     e(  8 -  8) =      3.12779  eV     1   --> B_2  D_4  S_4  

 **************************************************************************

 **************************************************************************

                    xk=(   0.13000,   0.07506,   0.00000  )

     Band symmetry, C_2v (mm2)  point group:

     e(  1 -  1) =    -20.87063  eV     1   --> A_1  D_1  S_1  
     e(  2 -  2) =     -9.11688  eV     1   --> B_2  D_4  S_4  
     e(  3 -  3) =     -7.34747  eV     1   --> A_1  D_1  S_1  
     e(  4 -  4) =     -6.58408  eV     1   --> B_1  D_3  S_3  
     e(  5 -  5) =      1.25801  eV     1   --> A_1  D_1  S_1  
     e(  6 -  6) =      1.90637  eV     1   --> B_2  D_4  S_4  
     e(  7 -  7) =      2.04674  eV     1   --> A_1  D_1  S_1  
     e(  8 -  8) =      3.04867  eV     1   --> B_2  D_4  S_4  

 **************************************************************************

 **************************************************************************

                    xk=(   0.12000,   0.06928,   0.00000  )

     Band symmetry, C_2v (mm2)  point group:

     e(  1 -  1) =    -20.92439  eV     1   --> A_1  D_1  S_1  
     e(  2 -  2) =     -9.17882  eV     1   --> B_2  D_4  S_4  
     e(  3 -  3) =     -7.15959  eV     1   --> A_1  D_1  S_1  
     e(  4 -  4) =     -6.50037  eV     1   --> B_1  D_3  S_3  
     e(  5 -  5) =      1.18500  eV     1   --> A_1  D_1  S_1  
     e(  6 -  6) =      1.83272  eV     1   --> B_2  D_4  S_4  
     e(  7 -  7) =      1.97233  eV     1   --> A_1  D_1  S_1  
     e(  8 -  8) =      2.97537  eV     1   --> B_2  D_4  S_4  

 **************************************************************************

 **************************************************************************

                    xk=(   0.11000,   0.06351,   0.00000  )

     Band symmetry, C_2v (mm2)  point group:

     e(  1 -  1) =    -20.97390  eV     1   --> A_1  D_1  S_1  
     e(  2 -  2) =     -9.23590  eV     1   --> B_2  D_4  S_4  
     e(  3 -  3) =     -6.98133  eV     1   --> A_1  D_1  S_1  
     e(  4 -  4) =     -6.42019  eV     1   --> B_1  D_3  S_3  
     e(  5 -  5) =      1.11782  eV     1   --> A_1  D_1  S_1  
     e(  6 -  6) =      1.76493  eV     1   --> B_2  D_4  S_4  
     e(  7 -  7) =      1.90387  eV     1   --> A_1  D_1  S_1  
     e(  8 -  8) =      2.90790  eV     1   --> B_2  D_4  S_4  

 **************************************************************************

 **************************************************************************

                    xk=(   0.10000,   0.05774,   0.00000  )

     Band symmetry, C_2v (mm2)  point group:

     e(  1 -  1) =    -21.01913  eV     1   --> A_1  D_1  S_1  
     e(  2 -  2) =     -9.28811  eV     1   --> B_2  D_4  S_4  
     e(  3 -  3) =     -6.81369  eV     1   --> A_1  D_1  S_1  
     e(  4 -  4) =     -6.34417  eV     1   --> B_1  D_3  S_3  
     e(  5 -  5) =      1.05647  eV     1   --> A_1  D_1  S_1  
     e(  6 -  6) =      1.70302  eV     1   --> B_2  D_4  S_4  
     e(  7 -  7) =      1.84136  eV     1   --> A_1  D_1  S_1  
     e(  8 -  8) =      2.84627  eV     1   --> B_2  D_4  S_4  

 **************************************************************************

 **************************************************************************

                    xk=(   0.09000,   0.05196,   0.00000  )

     Band symmetry, C_2v (mm2)  point group:

     e(  1 -  1) =    -21.06007  eV     1   --> A_1  D_1  S_1  
     e(  2 -  2) =     -9.33541  eV     1   --> B_2  D_4  S_4  
     e(  3 -  3) =     -6.65771  eV     1   --> A_1  D_1  S_1  
     e(  4 -  4) =     -6.27291  eV     1   --> B_1  D_3  S_3  
     e(  5 -  5) =      1.00096  eV     1   --> A_1  D_1  S_1  
     e(  6 -  6) =      1.64700  eV     1   --> B_2  D_4  S_4  
     e(  7 -  7) =      1.78481  eV     1   --> A_1  D_1  S_1  
     e(  8 -  8) =      2.79049  eV     1   --> B_2  D_4  S_4  

 **************************************************************************

 **************************************************************************

                    xk=(   0.08000,   0.04619,   0.00000  )

     Band symmetry, C_2v (mm2)  point group:

     e(  1 -  1) =    -21.09673  eV     1   --> A_1  D_1  S_1  
     e(  2 -  2) =     -9.37778  eV     1   --> B_2  D_4  S_4  
     e(  3 -  3) =     -6.51442  eV     1   --> A_1  D_1  S_1  
     e(  4 -  4) =     -6.20704  eV     1   --> B_1  D_3  S_3  
     e(  5 -  5) =      0.95129  eV     1   --> A_1  D_1  S_1  
     e(  6 -  6) =      1.59686  eV     1   --> B_2  D_4  S_4  
     e(  7 -  7) =      1.73421  eV     1   --> A_1  D_1  S_1  
     e(  8 -  8) =      2.74057  eV     1   --> B_2  D_4  S_4  

 **************************************************************************

 **************************************************************************

                    xk=(   0.07000,   0.04041,   0.00000  )

     Band symmetry, C_2v (mm2)  point group:

     e(  1 -  1) =    -21.12908  eV     1   --> A_1  D_1  S_1  
     e(  2 -  2) =     -9.41521  eV     1   --> B_2  D_4  S_4  
     e(  3 -  3) =     -6.38487  eV     1   --> A_1  D_1  S_1  
     e(  4 -  4) =     -6.14716  eV     1   --> B_1  D_3  S_3  
     e(  5 -  5) =      0.90746  eV     1   --> A_1  D_1  S_1  
     e(  6 -  6) =      1.55261  eV     1   --> B_2  D_4  S_4  
     e(  7 -  7) =      1.68956  eV     1   --> A_1  D_1  S_1  
     e(  8 -  8) =      2.69651  eV     1   --> B_2  D_4  S_4  

 **************************************************************************

 **************************************************************************

                    xk=(   0.06000,   0.03464,   0.00000  )

     Band symmetry, C_2v (mm2)  point group:

     e(  1 -  1) =    -21.15714  eV     1   --> A_1  D_1  S_1  
     e(  2 -  2) =     -9.44768  eV     1   --> B_2  D_4  S_4  
     e(  3 -  3) =     -6.27010  eV     1   --> A_1  D_1  S_1  
     e(  4 -  4) =     -6.09387  eV     1   --> B_1  D_3  S_3  
     e(  5 -  5) =      0.86947  eV     1   --> A_1  D_1  S_1  
     e(  6 -  6) =      1.51426  eV     1   --> B_2  D_4  S_4  
     e(  7 -  7) =      1.65086  eV     1   --> A_1  D_1  S_1  
     e(  8 -  8) =      2.65832  eV     1   --> B_2  D_4  S_4  

 **************************************************************************

 **************************************************************************

                    xk=(   0.05000,   0.02887,   0.00000  )

     Band symmetry, C_2v (mm2)  point group:

     e(  1 -  1) =    -21.18088  eV     1   --> A_1  D_1  S_1  
     e(  2 -  2) =     -9.47518  eV     1   --> B_2  D_4  S_4  
     e(  3 -  3) =     -6.17106  eV     1   --> A_1  D_1  S_1  
     e(  4 -  4) =     -6.04772  eV     1   --> B_1  D_3  S_3  
     e(  5 -  5) =      0.83733  eV     1   --> A_1  D_1  S_1  
     e(  6 -  6) =      1.48180  eV     1   --> B_2  D_4  S_4  
     e(  7 -  7) =      1.61812  eV     1   --> A_1  D_1  S_1  
     e(  8 -  8) =      2.62600  eV     1   --> B_2  D_4  S_4  

 **************************************************************************

 **************************************************************************

                    xk=(   0.04000,   0.02309,   0.00000  )

     Band symmetry, C_2v (mm2)  point group:

     e(  1 -  1) =    -21.20032  eV     1   --> A_1  D_1  S_1  
     e(  2 -  2) =     -9.49769  eV     1   --> B_2  D_4  S_4  
     e(  3 -  3) =     -6.08867  eV     1   --> A_1  D_1  S_1  
     e(  4 -  4) =     -6.00920  eV     1   --> B_1  D_3  S_3  
     e(  5 -  5) =      0.81103  eV     1   --> A_1  D_1  S_1  
     e(  6 -  6) =      1.45524  eV     1   --> B_2  D_4  S_4  
     e(  7 -  7) =      1.59133  eV     1   --> A_1  D_1  S_1  
     e(  8 -  8) =      2.59956  eV     1   --> B_2  D_4  S_4  

 **************************************************************************

 **************************************************************************

                    xk=(   0.03000,   0.01732,   0.00000  )

     Band symmetry, C_2v (mm2)  point group:

     e(  1 -  1) =    -21.21544  eV     1   --> A_1  D_1  S_1  
     e(  2 -  2) =     -9.51521  eV     1   --> B_2  D_4  S_4  
     e(  3 -  3) =     -6.02369  eV     1   --> A_1  D_1  S_1  
     e(  4 -  4) =     -5.97876  eV     1   --> B_1  D_3  S_3  
     e(  5 -  5) =      0.79057  eV     1   --> A_1  D_1  S_1  
     e(  6 -  6) =      1.43458  eV     1   --> B_2  D_4  S_4  
     e(  7 -  7) =      1.57049  eV     1   --> A_1  D_1  S_1  
     e(  8 -  8) =      2.57899  eV     1   --> B_2  D_4  S_4  

 **************************************************************************

 **************************************************************************

                    xk=(   0.02000,   0.01155,   0.00000  )

     Band symmetry, C_2v (mm2)  point group:

     e(  1 -  1) =    -21.22624  eV     1   --> A_1  D_1  S_1  
     e(  2 -  2) =     -9.52773  eV     1   --> B_2  D_4  S_4  
     e(  3 -  3) =     -5.97679  eV     1   --> A_1  D_1  S_1  
     e(  4 -  4) =     -5.95674  eV     1   --> B_1  D_3  S_3  
     e(  5 -  5) =      0.77596  eV     1   --> A_1  D_1  S_1  
     e(  6 -  6) =      1.41983  eV     1   --> B_2  D_4  S_4  
     e(  7 -  7) =      1.55561  eV     1   --> A_1  D_1  S_1  
     e(  8 -  8) =      2.56429  eV     1   --> B_2  D_4  S_4  

 **************************************************************************

 **************************************************************************

                    xk=(   0.01000,   0.00577,   0.00000  )

     Band symmetry, C_2v (mm2)  point group:

     e(  1 -  1) =    -21.23272  eV     1   --> A_1  D_1  S_1  
     e(  2 -  2) =     -9.53524  eV     1   --> B_2  D_4  S_4  
     e(  3 -  3) =     -5.94845  eV     1   --> A_1  D_1  S_1  
     e(  4 -  4) =     -5.94343  eV     1   --> B_1  D_3  S_3  
     e(  5 -  5) =      0.76719  eV     1   --> A_1  D_1  S_1  
     e(  6 -  6) =      1.41097  eV     1   --> B_2  D_4  S_4  
     e(  7 -  7) =      1.54668  eV     1   --> A_1  D_1  S_1  
     e(  8 -  8) =      2.55547  eV     1   --> B_2  D_4  S_4  

 **************************************************************************

 **************************************************************************

                    xk=(   0.00000,   0.00000,   0.00000  )

     point group D_6h(6/mmm)
     there are 12 classes
     the character table:

       E     2C6   2C3   C2    3C2'  3C2'' i     2S3   2S6   s_h   3s_d  3s_v 
A_1g   1.00  1.00  1.00  1.00  1.00  1.00  1.00  1.00  1.00  1.00  1.00  1.00
A_2g   1.00  1.00  1.00  1.00 -1.00 -1.00  1.00  1.00  1.00  1.00 -1.00 -1.00
B_1g   1.00 -1.00  1.00 -1.00  1.00 -1.00  1.00 -1.00  1.00 -1.00  1.00 -1.00
B_2g   1.00 -1.00  1.00 -1.00 -1.00  1.00  1.00 -1.00  1.00 -1.00 -1.00  1.00
E_1g   2.00  1.00 -1.00 -2.00  0.00  0.00  2.00  1.00 -1.00 -2.00  0.00  0.00
E_2g   2.00 -1.00 -1.00  2.00  0.00  0.00  2.00 -1.00 -1.00  2.00  0.00  0.00
A_1u   1.00  1.00  1.00  1.00  1.00  1.00 -1.00 -1.00 -1.00 -1.00 -1.00 -1.00
A_2u   1.00  1.00  1.00  1.00 -1.00 -1.00 -1.00 -1.00 -1.00 -1.00  1.00  1.00
B_1u   1.00 -1.00  1.00 -1.00  1.00 -1.00 -1.00  1.00 -1.00  1.00 -1.00  1.00
B_2u   1.00 -1.00  1.00 -1.00 -1.00  1.00 -1.00  1.00 -1.00  1.00  1.00 -1.00
E_1u   2.00  1.00 -1.00 -2.00  0.00  0.00 -2.00 -1.00  1.00  2.00  0.00  0.00
E_2u   2.00 -1.00 -1.00  2.00  0.00  0.00 -2.00  1.00  1.00 -2.00  0.00  0.00

     the symmetry operations in each class and the name of the first element:

     E        1
                                                                 
     2C6      5    6
                                                                 
     2C3      7    8
                                                                 
     C2       2
                                                                 
     3C2'     4   12   11
                                                                 
     3C2''    3    9   10
                                                                 
     i       13
                                                                 
     2S3     17   18
                                                                 
     2S6     19   20
                                                                 
     s_h     14
                                                                 
     3s_d    16   24   23
                                                                 
     3s_v    15   21   22
                                                                 

     Band symmetry, D_6h(6/mmm) point group:

     e(  1 -  1) =    -21.23488  eV     1   --> A_1g           
     e(  2 -  2) =     -9.53775  eV     1   --> A_2u           
     e(  3 -  4) =     -5.93897  eV     2   --> E_2g           
     e(  5 -  5) =      0.76427  eV     1   --> A_1g           
     e(  6 -  6) =      1.40802  eV     1   --> A_2u           
     e(  7 -  7) =      1.54370  eV     1   --> A_1g           
     e(  8 -  8) =      2.55253  eV     1   --> A_2u           

 **************************************************************************

     BANDS        :   1m48.45s CPU   2m10.72s WALL


   This run was terminated on:  11:47:28   5Aug2023            

=------------------------------------------------------------------------------=
   JOB DONE.
=------------------------------------------------------------------------------=
