
     Program PWSCF v.6.7MaX starts on  1Sep2023 at 10:28:57 

     This program is part of the open-source Quantum ESPRESSO suite
     for quantum simulation of materials; please cite
         "P. Giannozzi et al., J. Phys.:Condens. Matter 21 395502 (2009);
         "P. Giannozzi et al., J. Phys.:Condens. Matter 29 465901 (2017);
          URL http://www.quantum-espresso.org", 
     in publications or presentations arising from this work. More details at
     http://www.quantum-espresso.org/quote

     Parallel version (MPI), running on     2 processors

     MPI processes distributed on     1 nodes
     R & G space division:  proc/nbgrp/npool/nimage =       2
     Waiting for input...
     Reading input from standard input

     Current dimensions of program PWSCF are:
     Max number of different atomic species (ntypx) = 10
     Max number of k-points (npk) =  40000
     Max angular momentum in pseudopotentials (lmaxx) =  3
     file C.pbe-n-kjpaw_psl.1.0.0.UPF: wavefunction(s)  2S 2P renormalized

     Subspace diagonalization in iterative solution of the eigenvalue problem:
     a serial algorithm will be used


     Parallelization info
     --------------------
     sticks:   dense  smooth     PW     G-vecs:    dense   smooth      PW
     Min         330     330     99                52992    52992    8541
     Max         331     331    100                52993    52993    8552
     Sum         661     661    199               105985   105985   17093



     bravais-lattice index     =           12
     lattice parameter (alat)  =       4.8944  a.u.
     unit-cell volume          =     784.0735 (a.u.)^3
     number of atoms/cell      =            2
     number of atomic types    =            1
     number of electrons       =         8.00
     number of Kohn-Sham states=            8
     kinetic-energy cutoff     =     100.0000  Ry
     charge density cutoff     =     400.0000  Ry
     scf convergence threshold =      1.0E-10
     mixing beta               =       0.5000
     number of iterations used =            8  plain     mixing
     Exchange-correlation= SLA  PW   PBX  PBC
                           (   1   4   3   4   0   0   0)

     celldm(1)=   4.894391  celldm(2)=   1.000000  celldm(3)=   7.722008
     celldm(4)=  -0.500000  celldm(5)=   0.000000  celldm(6)=   0.000000

     crystal axes: (cart. coord. in units of alat)
               a(1) = (   1.000000   0.000000   0.000000 )  
               a(2) = (  -0.500000   0.866025   0.000000 )  
               a(3) = (   0.000000   0.000000   7.722008 )  

     reciprocal axes: (cart. coord. in units 2 pi/alat)
               b(1) = (  1.000000  0.577350 -0.000000 )  
               b(2) = (  0.000000  1.154701  0.000000 )  
               b(3) = (  0.000000 -0.000000  0.129500 )  


     PseudoPot. # 1 for C  read from file:
     ./Pseudo/C.pbe-n-kjpaw_psl.1.0.0.UPF
     MD5 check sum: ecdf03482cb4269f2fcfa842d572f30f
     Pseudo is Projector augmented-wave + core cor, Zval =  4.0
     Generated using &quot;atomic&quot; code by A. Dal Corso  v.6.3
     Shape of augmentation charge: PSQ
     Using radial grid of 1073 points,  4 beta functions with: 
                l(1) =   0
                l(2) =   0
                l(3) =   1
                l(4) =   1
     Q(r) pseudized with 0 coefficients 


     atomic species   valence    mass     pseudopotential
        C              4.00    12.01070     C ( 1.00)

     24 Sym. Ops., with inversion, found (18 have fractional translation)



   Cartesian axes

     site n.     atom                  positions (alat units)
         1           C   tau(   1) = (   0.0000000   0.0000000   1.9305019  )
         2           C   tau(   2) = (  -0.0000000   0.5773503   1.9305019  )

     number of k points=    37
                       cart. coord. in units 2pi/alat
        k(    1) = (   0.0000000   0.0000000   0.0000000), wk =   0.0061728
        k(    2) = (   0.0000000   0.0641500   0.0000000), wk =   0.0370370
        k(    3) = (   0.0000000   0.1283001   0.0000000), wk =   0.0370370
        k(    4) = (   0.0000000   0.1924501   0.0000000), wk =   0.0370370
        k(    5) = (   0.0000000   0.2566001   0.0000000), wk =   0.0370370
        k(    6) = (   0.0000000   0.3207501   0.0000000), wk =   0.0370370
        k(    7) = (   0.0000000   0.3849002   0.0000000), wk =   0.0370370
        k(    8) = (   0.0000000   0.4490502   0.0000000), wk =   0.0370370
        k(    9) = (   0.0000000   0.5132002   0.0000000), wk =   0.0370370
        k(   10) = (   0.0000000  -0.5773503   0.0000000), wk =   0.0185185
        k(   11) = (   0.0555556   0.0962250   0.0000000), wk =   0.0370370
        k(   12) = (   0.0555556   0.1603751   0.0000000), wk =   0.0740741
        k(   13) = (   0.0555556   0.2245251   0.0000000), wk =   0.0740741
        k(   14) = (   0.0555556   0.2886751   0.0000000), wk =   0.0740741
        k(   15) = (   0.0555556   0.3528252   0.0000000), wk =   0.0740741
        k(   16) = (   0.0555556   0.4169752   0.0000000), wk =   0.0740741
        k(   17) = (   0.0555556   0.4811252   0.0000000), wk =   0.0740741
        k(   18) = (   0.0555556   0.5452753   0.0000000), wk =   0.0740741
        k(   19) = (   0.1111111   0.1924501   0.0000000), wk =   0.0370370
        k(   20) = (   0.1111111   0.2566001   0.0000000), wk =   0.0740741
        k(   21) = (   0.1111111   0.3207501   0.0000000), wk =   0.0740741
        k(   22) = (   0.1111111   0.3849002   0.0000000), wk =   0.0740741
        k(   23) = (   0.1111111   0.4490502   0.0000000), wk =   0.0740741
        k(   24) = (   0.1111111   0.5132002   0.0000000), wk =   0.0740741
        k(   25) = (   0.1111111   0.5773503   0.0000000), wk =   0.0370370
        k(   26) = (   0.1666667   0.2886751   0.0000000), wk =   0.0370370
        k(   27) = (   0.1666667   0.3528252   0.0000000), wk =   0.0740741
        k(   28) = (   0.1666667   0.4169752   0.0000000), wk =   0.0740741
        k(   29) = (   0.1666667   0.4811252   0.0000000), wk =   0.0740741
        k(   30) = (   0.1666667   0.5452753   0.0000000), wk =   0.0740741
        k(   31) = (   0.2222222   0.3849002   0.0000000), wk =   0.0370370
        k(   32) = (   0.2222222   0.4490502   0.0000000), wk =   0.0740741
        k(   33) = (   0.2222222   0.5132002   0.0000000), wk =   0.0740741
        k(   34) = (   0.2222222   0.5773503   0.0000000), wk =   0.0370370
        k(   35) = (   0.2777778   0.4811252   0.0000000), wk =   0.0370370
        k(   36) = (   0.2777778   0.5452753   0.0000000), wk =   0.0740741
        k(   37) = (   0.3333333   0.5773503   0.0000000), wk =   0.0123457

     Dense  grid:   105985 G-vectors     FFT dimensions: (  36,  36, 250)

     Estimated max dynamical RAM per process >     102.33 MB

     Estimated total dynamical RAM >     204.66 MB

     Check: negative core charge=   -0.000002

     Initial potential from superposition of free atoms

     starting charge    7.99992, renormalised to    8.00000

     negative rho (up, down):  1.115E-04 0.000E+00
     Starting wfcs are    8 randomized atomic wfcs
     Checking if some PAW data can be deallocated... 

     total cpu time spent up to now is        6.5 secs

     Self-consistent Calculation

     iteration #  1     ecut=   100.00 Ry     beta= 0.50
     Davidson diagonalization with overlap
     ethr =  1.00E-02,  avg # of iterations =  5.5

     negative rho (up, down):  1.091E-04 0.000E+00

     total cpu time spent up to now is       27.3 secs

     total energy              =     -36.86309084 Ry
     estimated scf accuracy    <       0.12278396 Ry

     iteration #  2     ecut=   100.00 Ry     beta= 0.50
     Davidson diagonalization with overlap
     ethr =  1.53E-03,  avg # of iterations =  3.8

     negative rho (up, down):  1.175E-04 0.000E+00

     total cpu time spent up to now is       43.2 secs

     total energy              =     -36.86338625 Ry
     estimated scf accuracy    <       0.01464287 Ry

     iteration #  3     ecut=   100.00 Ry     beta= 0.50
     Davidson diagonalization with overlap
     ethr =  1.83E-04,  avg # of iterations =  8.9

     negative rho (up, down):  1.181E-04 0.000E+00

     total cpu time spent up to now is       66.5 secs

     total energy              =     -36.86599303 Ry
     estimated scf accuracy    <       0.00063502 Ry

     iteration #  4     ecut=   100.00 Ry     beta= 0.50
     Davidson diagonalization with overlap
     c_bands:  1 eigenvalues not converged
     ethr =  7.94E-06,  avg # of iterations =  9.6

     negative rho (up, down):  1.205E-04 0.000E+00

     total cpu time spent up to now is       93.6 secs

     total energy              =     -36.86595572 Ry
     estimated scf accuracy    <       0.00042948 Ry

     iteration #  5     ecut=   100.00 Ry     beta= 0.50
     Davidson diagonalization with overlap
     ethr =  5.37E-06,  avg # of iterations =  2.7

     negative rho (up, down):  1.208E-04 0.000E+00

     total cpu time spent up to now is      109.2 secs

     total energy              =     -36.86602731 Ry
     estimated scf accuracy    <       0.00000041 Ry

     iteration #  6     ecut=   100.00 Ry     beta= 0.50
     Davidson diagonalization with overlap
     c_bands:  1 eigenvalues not converged
     ethr =  5.13E-09,  avg # of iterations =  4.2

     negative rho (up, down):  1.211E-04 0.000E+00

     total cpu time spent up to now is      127.4 secs

     total energy              =     -36.86602826 Ry
     estimated scf accuracy    <       0.00000004 Ry

     iteration #  7     ecut=   100.00 Ry     beta= 0.50
     Davidson diagonalization with overlap
     ethr =  4.49E-10,  avg # of iterations =  2.3

     negative rho (up, down):  1.211E-04 0.000E+00

     total cpu time spent up to now is      148.0 secs

     total energy              =     -36.86602826 Ry
     estimated scf accuracy    <       0.00000001 Ry

     iteration #  8     ecut=   100.00 Ry     beta= 0.50
     Davidson diagonalization with overlap
     ethr =  1.58E-10,  avg # of iterations =  1.2

     negative rho (up, down):  1.211E-04 0.000E+00

     total cpu time spent up to now is      173.4 secs

     total energy              =     -36.86602826 Ry
     estimated scf accuracy    <          2.4E-09 Ry

     iteration #  9     ecut=   100.00 Ry     beta= 0.50
     Davidson diagonalization with overlap
     ethr =  3.05E-11,  avg # of iterations =  2.0

     negative rho (up, down):  1.211E-04 0.000E+00

     total cpu time spent up to now is      204.2 secs

     total energy              =     -36.86602826 Ry
     estimated scf accuracy    <          3.5E-10 Ry

     iteration # 10     ecut=   100.00 Ry     beta= 0.50
     Davidson diagonalization with overlap
     ethr =  4.41E-12,  avg # of iterations =  2.1

     negative rho (up, down):  1.211E-04 0.000E+00

     total cpu time spent up to now is      240.3 secs

     End of self-consistent calculation

          k = 0.0000 0.0000 0.0000 ( 13279 PWs)   bands (ev):

   -21.2348  -9.5377  -5.9389  -5.9389   0.7643   1.4080   1.5437   2.5526

          k = 0.0000 0.0642 0.0000 ( 13263 PWs)   bands (ev):

   -21.1682  -9.4605  -6.2240  -6.0724   0.8545   1.4991   1.6356   2.6433

          k = 0.0000 0.1283 0.0000 ( 13277 PWs)   bands (ev):

   -20.9686  -9.2298  -7.0006  -6.4289   1.1250   1.7722   1.9112   2.9151

          k = 0.0000 0.1925 0.0000 ( 13221 PWs)   bands (ev):

   -20.6371  -8.8487  -8.1036  -6.9121   1.5756   2.2265   2.3705   3.3671

          k = 0.0000 0.2566 0.0000 ( 13213 PWs)   bands (ev):

   -20.1760  -9.3827  -8.3236  -7.4292   2.2053   2.8580   3.0133   3.9511

          k = 0.0000 0.3208 0.0000 ( 13234 PWs)   bands (ev):

   -19.5887 -10.7317  -7.9134  -7.6658   2.7808   3.0117   3.6963   3.7697

          k = 0.0000 0.3849 0.0000 ( 13246 PWs)   bands (ev):

   -18.8816 -12.0798  -8.3217  -6.8973   1.4810   3.5023   4.0089   4.6827

          k = 0.0000 0.4491 0.0000 ( 13260 PWs)   bands (ev):

   -18.0688 -13.3733  -8.6281  -6.0667   0.2269   3.3081   5.1623   5.8509

          k = 0.0000 0.5132 0.0000 ( 13236 PWs)   bands (ev):

   -17.1985 -14.5404  -8.8172  -5.3028  -0.8067   3.1841   6.4854   7.1853

          k = 0.0000-0.5774 0.0000 ( 13234 PWs)   bands (ev):

   -16.6265 -15.2125  -8.8811  -4.9437  -1.2584   3.1418   7.8830   8.0363

          k = 0.0556 0.0962 0.0000 ( 13255 PWs)   bands (ev):

   -21.0350  -9.3065  -6.7323  -6.3402   1.0348   1.6812   1.8193   2.8251

          k = 0.0556 0.1604 0.0000 ( 13243 PWs)   bands (ev):

   -20.7695  -9.0006  -7.6266  -6.8067   1.3954   2.0450   2.1868   3.1867

          k = 0.0556 0.2245 0.0000 ( 13197 PWs)   bands (ev):

   -20.3732  -8.7790  -8.5472  -7.3475   1.9357   2.5891   2.7380   3.7269

          k = 0.0556 0.2887 0.0000 ( 13196 PWs)   bands (ev):

   -19.8489 -10.0672  -7.9547  -7.8758   2.6546   3.2472   3.4281   3.4725

          k = 0.0556 0.3528 0.0000 ( 13240 PWs)   bands (ev):

   -19.2013 -11.4004  -8.3393  -7.2387   2.0805   3.5453   3.9451   4.2289

          k = 0.0556 0.4170 0.0000 ( 13232 PWs)   bands (ev):

   -18.4397 -12.7136  -8.7068  -6.4306   0.8038   3.7031   4.6300   5.3081

          k = 0.0556 0.4811 0.0000 ( 13241 PWs)   bands (ev):

   -17.5880 -13.9489  -8.9602  -5.6070  -0.3585   3.5420   5.8692   6.5572

          k = 0.0556 0.5453 0.0000 ( 13249 PWs)   bands (ev):

   -16.7662 -14.9668  -9.0891  -4.9837  -1.1588   3.4581   7.2652   7.9491

          k = 0.1111 0.1925 0.0000 ( 13224 PWs)   bands (ev):

   -20.4391  -8.6220  -8.4876  -7.4152   1.8459   2.4990   2.6462   3.6385

          k = 0.1111 0.2566 0.0000 ( 13185 PWs)   bands (ev):

   -19.9795  -9.5535  -8.1003  -8.0658   2.4756   3.1312   3.2891   3.6868

          k = 0.1111 0.3208 0.0000 ( 13218 PWs)   bands (ev):

   -19.3945 -10.7620  -8.6405  -7.4465   2.5166   3.2828   3.9498   4.1156

          k = 0.1111 0.3849 0.0000 ( 13243 PWs)   bands (ev):

   -18.6908 -12.0256  -9.1014  -6.6815   1.2927   4.2603   4.6661   4.9376

          k = 0.1111 0.4491 0.0000 ( 13254 PWs)   bands (ev):

   -17.8826 -13.2689  -9.4365  -5.8512   0.0991   4.4569   5.4275   6.0935

          k = 0.1111 0.5132 0.0000 ( 13260 PWs)   bands (ev):

   -17.0177 -14.4075  -9.6397  -5.0787  -0.9062   4.3334   6.7410   7.3879

          k = 0.1111 0.5774 0.0000 ( 13248 PWs)   bands (ev):

   -16.4478 -15.0705  -9.7079  -4.7080  -1.3569   4.2909   8.1016   8.2807

          k = 0.1667 0.2887 0.0000 ( 13196 PWs)   bands (ev):

   -19.4592 -10.4390  -8.8646  -7.5163   2.6816   3.1937   3.8536   4.0239

          k = 0.1667 0.3528 0.0000 ( 13233 PWs)   bands (ev):

   -18.8175 -11.4694  -9.5471  -6.8093   1.5841   4.0877   4.7480   4.9421

          k = 0.1667 0.4170 0.0000 ( 13262 PWs)   bands (ev):

   -18.0641 -12.6012 -10.0418  -6.0075   0.4540   5.1503   5.7774   5.8048

          k = 0.1667 0.4811 0.0000 ( 13266 PWs)   bands (ev):

   -17.2232 -13.7361 -10.3588  -5.1773  -0.6143   5.6004   6.3917   6.9863

          k = 0.1667 0.5453 0.0000 ( 13267 PWs)   bands (ev):

   -16.4098 -14.7079 -10.5139  -4.5234  -1.3936   5.5161   7.7498   8.0799

          k = 0.2222 0.3849 0.0000 ( 13242 PWs)   bands (ev):

   -18.1253 -12.2517 -10.3811  -6.0611   0.5903   5.0646   5.7062   5.9509

          k = 0.2222 0.4491 0.0000 ( 13250 PWs)   bands (ev):

   -17.3330 -13.1636 -10.9758  -5.2372  -0.4186   6.2016   6.7701   7.0813

          k = 0.2222 0.5132 0.0000 ( 13253 PWs)   bands (ev):

   -16.4855 -14.1297 -11.3051  -4.4334  -1.3385   6.9346   7.5003   7.6736

          k = 0.2222 0.5774 0.0000 ( 13260 PWs)   bands (ev):

   -15.9130 -14.7508 -11.4090  -4.0068  -1.8050   6.8949   7.9431   8.6461

          k = 0.2778 0.4811 0.0000 ( 13262 PWs)   bands (ev):

   -16.5221 -13.7983 -11.7036  -4.4091  -1.3021   7.3819   7.5170   8.1590

          k = 0.2778 0.5453 0.0000 ( 13272 PWs)   bands (ev):

   -15.7196 -14.5148 -12.0765  -3.6499  -2.0848   7.6542   8.1735   8.5882

          k = 0.3333 0.5774 0.0000 ( 13284 PWs)   bands (ev):

   -15.0263 -15.0263 -12.3928  -2.8587  -2.8587   7.5514   8.8228   8.8228

     highest occupied, lowest unoccupied level (ev):    -2.8587   -2.8587

!    total energy              =     -36.86602826 Ry

     total all-electron energy =      -152.394223 Ry
     estimated scf accuracy    <          1.2E-11 Ry

     The total energy is the sum of the following terms:
     one-electron contribution =    -202.50361939 Ry
     hartree contribution      =     102.55802555 Ry
     xc contribution           =      -9.06174600 Ry
     ewald contribution        =      84.46733715 Ry
     one-center paw contrib.   =     -12.32602557 Ry

     convergence has been achieved in  10 iterations

     Writing output data file ./tmp/graphene1.save/

     init_run     :      5.45s CPU      6.09s WALL (       1 calls)
     electrons    :    213.94s CPU    234.48s WALL (       1 calls)

     Called by init_run:
     wfcinit      :      4.46s CPU      4.73s WALL (       1 calls)
     potinit      :      0.38s CPU      0.52s WALL (       1 calls)
     hinit0       :      0.38s CPU      0.47s WALL (       1 calls)

     Called by electrons:
     c_bands      :    175.68s CPU    188.91s WALL (      10 calls)
     sum_band     :     33.36s CPU     39.65s WALL (      10 calls)
     v_of_rho     :      2.48s CPU      2.96s WALL (      11 calls)
     newd         :      1.02s CPU      1.20s WALL (      11 calls)
     PAW_pot      :      0.85s CPU      1.04s WALL (      11 calls)
     mix_rho      :      0.51s CPU      0.56s WALL (      10 calls)

     Called by c_bands:
     init_us_2    :      1.89s CPU      2.03s WALL (     777 calls)
     cegterg      :    172.08s CPU    185.05s WALL (     370 calls)

     Called by *egterg:
     cdiaghg      :      0.33s CPU      0.45s WALL (    1936 calls)
     h_psi        :    150.02s CPU    161.42s WALL (    1973 calls)
     s_psi        :      4.81s CPU      5.09s WALL (    1973 calls)
     g_psi        :      0.50s CPU      0.53s WALL (    1566 calls)

     Called by h_psi:
     h_psi:calbec :      5.39s CPU      5.82s WALL (    1973 calls)
     vloc_psi     :    139.22s CPU    149.92s WALL (    1973 calls)
     add_vuspsi   :      4.91s CPU      5.18s WALL (    1973 calls)

     General routines
     calbec       :      7.53s CPU      8.44s WALL (    2343 calls)
     fft          :      1.51s CPU      1.86s WALL (     121 calls)
     ffts         :      0.17s CPU      0.18s WALL (      10 calls)
     fftw         :    138.78s CPU    152.09s WALL (   20770 calls)

     Parallel routines
     fft_scatt_xy :     27.38s CPU     29.60s WALL (   20901 calls)
     fft_scatt_yz :     23.37s CPU     27.62s WALL (   20901 calls)

     PWSCF        :   3m40.36s CPU   4m 3.55s WALL


   This run was terminated on:  10:33: 1   1Sep2023            

=------------------------------------------------------------------------------=
   JOB DONE.
=------------------------------------------------------------------------------=
