
     Program PWSCF v.6.7MaX starts on  4Aug2023 at  9:43:38 

     This program is part of the open-source Quantum ESPRESSO suite
     for quantum simulation of materials; please cite
         "P. Giannozzi et al., J. Phys.:Condens. Matter 21 395502 (2009);
         "P. Giannozzi et al., J. Phys.:Condens. Matter 29 465901 (2017);
          URL http://www.quantum-espresso.org", 
     in publications or presentations arising from this work. More details at
     http://www.quantum-espresso.org/quote

     Parallel version (MPI), running on     1 processors

     MPI processes distributed on     1 nodes
     Waiting for input...
     Reading input from standard input

     Current dimensions of program PWSCF are:
     Max number of different atomic species (ntypx) = 10
     Max number of k-points (npk) =  40000
     Max angular momentum in pseudopotentials (lmaxx) =  3
     file C.pbe-n-kjpaw_psl.1.0.0.UPF: wavefunction(s)  2S 2P renormalized

     Subspace diagonalization in iterative solution of the eigenvalue problem:
     a serial algorithm will be used


     G-vector sticks info
     --------------------
     sticks:   dense  smooth     PW     G-vecs:    dense   smooth      PW
     Sum         595     595    169                96043    96043   15131



     bravais-lattice index     =           12
     lattice parameter (alat)  =       4.6620  a.u.
     unit-cell volume          =     711.3700 (a.u.)^3
     number of atoms/cell      =            2
     number of atomic types    =            1
     number of electrons       =         8.00
     number of Kohn-Sham states=            4
     kinetic-energy cutoff     =     100.0000  Ry
     charge density cutoff     =     400.0000  Ry
     scf convergence threshold =      1.0E-06
     mixing beta               =       0.5000
     number of iterations used =            8  plain     mixing
     Exchange-correlation= SLA  PW   PBX  PBC
                           (   1   4   3   4   0   0   0)

     celldm(1)=   4.661954  celldm(2)=   1.000000  celldm(3)=   8.107013
     celldm(4)=  -0.500000  celldm(5)=   0.000000  celldm(6)=   0.000000

     crystal axes: (cart. coord. in units of alat)
               a(1) = (   1.000000   0.000000   0.000000 )  
               a(2) = (  -0.500000   0.866025   0.000000 )  
               a(3) = (   0.000000   0.000000   8.107013 )  

     reciprocal axes: (cart. coord. in units 2 pi/alat)
               b(1) = (  1.000000  0.577350 -0.000000 )  
               b(2) = (  0.000000  1.154701  0.000000 )  
               b(3) = (  0.000000 -0.000000  0.123350 )  


     PseudoPot. # 1 for C  read from file:
     ./Pseudo/C.pbe-n-kjpaw_psl.1.0.0.UPF
     MD5 check sum: ecdf03482cb4269f2fcfa842d572f30f
     Pseudo is Projector augmented-wave + core cor, Zval =  4.0
     Generated using &quot;atomic&quot; code by A. Dal Corso  v.6.3
     Shape of augmentation charge: PSQ
     Using radial grid of 1073 points,  4 beta functions with: 
                l(1) =   0
                l(2) =   0
                l(3) =   1
                l(4) =   1
     Q(r) pseudized with 0 coefficients 


     atomic species   valence    mass     pseudopotential
        C              4.00    12.01070     C ( 1.00)

     24 Sym. Ops., with inversion, found (18 have fractional translation)



   Cartesian axes

     site n.     atom                  positions (alat units)
         1           C   tau(   1) = (   0.0000000   0.0000000   2.0267531  )
         2           C   tau(   2) = (  -0.0000000   0.5773503   2.0267531  )

     number of k points=    30
                       cart. coord. in units 2pi/alat
        k(    1) = (   0.0000000   0.0000000   0.0000000), wk =   0.0078125
        k(    2) = (   0.0000000   0.0721688   0.0000000), wk =   0.0468750
        k(    3) = (   0.0000000   0.1443376   0.0000000), wk =   0.0468750
        k(    4) = (   0.0000000   0.2165064   0.0000000), wk =   0.0468750
        k(    5) = (   0.0000000   0.2886751   0.0000000), wk =   0.0468750
        k(    6) = (   0.0000000   0.3608439   0.0000000), wk =   0.0468750
        k(    7) = (   0.0000000   0.4330127   0.0000000), wk =   0.0468750
        k(    8) = (   0.0000000   0.5051815   0.0000000), wk =   0.0468750
        k(    9) = (   0.0000000  -0.5773503   0.0000000), wk =   0.0234375
        k(   10) = (   0.0625000   0.1082532   0.0000000), wk =   0.0468750
        k(   11) = (   0.0625000   0.1804220   0.0000000), wk =   0.0937500
        k(   12) = (   0.0625000   0.2525907   0.0000000), wk =   0.0937500
        k(   13) = (   0.0625000   0.3247595   0.0000000), wk =   0.0937500
        k(   14) = (   0.0625000   0.3969283   0.0000000), wk =   0.0937500
        k(   15) = (   0.0625000   0.4690971   0.0000000), wk =   0.0937500
        k(   16) = (   0.0625000   0.5412659   0.0000000), wk =   0.0937500
        k(   17) = (   0.1250000   0.2165064   0.0000000), wk =   0.0468750
        k(   18) = (   0.1250000   0.2886751   0.0000000), wk =   0.0937500
        k(   19) = (   0.1250000   0.3608439   0.0000000), wk =   0.0937500
        k(   20) = (   0.1250000   0.4330127   0.0000000), wk =   0.0937500
        k(   21) = (   0.1250000   0.5051815   0.0000000), wk =   0.0937500
        k(   22) = (   0.1250000   0.5773503   0.0000000), wk =   0.0468750
        k(   23) = (   0.1875000   0.3247595   0.0000000), wk =   0.0468750
        k(   24) = (   0.1875000   0.3969283   0.0000000), wk =   0.0937500
        k(   25) = (   0.1875000   0.4690971   0.0000000), wk =   0.0937500
        k(   26) = (   0.1875000   0.5412659   0.0000000), wk =   0.0937500
        k(   27) = (   0.2500000   0.4330127   0.0000000), wk =   0.0468750
        k(   28) = (   0.2500000   0.5051815   0.0000000), wk =   0.0937500
        k(   29) = (   0.2500000   0.5773503   0.0000000), wk =   0.0468750
        k(   30) = (   0.3125000   0.5412659   0.0000000), wk =   0.0468750

     Dense  grid:    96043 G-vectors     FFT dimensions: (  30,  30, 250)

     Estimated max dynamical RAM per process >     147.45 MB

     Check: negative core charge=   -0.000002

     Initial potential from superposition of free atoms

     starting charge    7.99992, renormalised to    8.00000

     negative rho (up, down):  1.067E-04 0.000E+00
     Starting wfcs are    8 randomized atomic wfcs
     Checking if some PAW data can be deallocated... 

     total cpu time spent up to now is        5.7 secs

     Self-consistent Calculation

     iteration #  1     ecut=   100.00 Ry     beta= 0.50
     Davidson diagonalization with overlap
     ethr =  1.00E-02,  avg # of iterations =  2.0

     negative rho (up, down):  1.122E-04 0.000E+00

     total cpu time spent up to now is       13.9 secs

     total energy              =     -36.88537083 Ry
     estimated scf accuracy    <       0.17898938 Ry

     iteration #  2     ecut=   100.00 Ry     beta= 0.50
     Davidson diagonalization with overlap
     ethr =  2.24E-03,  avg # of iterations =  1.5

     negative rho (up, down):  1.240E-04 0.000E+00

     total cpu time spent up to now is       20.3 secs

     total energy              =     -36.88302984 Ry
     estimated scf accuracy    <       0.02296804 Ry

     iteration #  3     ecut=   100.00 Ry     beta= 0.50
     Davidson diagonalization with overlap
     ethr =  2.87E-04,  avg # of iterations =  2.0

     negative rho (up, down):  1.241E-04 0.000E+00

     total cpu time spent up to now is       28.4 secs

     total energy              =     -36.88805687 Ry
     estimated scf accuracy    <       0.00094274 Ry

     iteration #  4     ecut=   100.00 Ry     beta= 0.50
     Davidson diagonalization with overlap
     ethr =  1.18E-05,  avg # of iterations =  2.0

     negative rho (up, down):  1.271E-04 0.000E+00

     total cpu time spent up to now is       36.7 secs

     total energy              =     -36.88812029 Ry
     estimated scf accuracy    <       0.00033426 Ry

     iteration #  5     ecut=   100.00 Ry     beta= 0.50
     Davidson diagonalization with overlap
     ethr =  4.18E-06,  avg # of iterations =  2.0

     negative rho (up, down):  1.265E-04 0.000E+00

     total cpu time spent up to now is       44.9 secs

     total energy              =     -36.88818827 Ry
     estimated scf accuracy    <       0.00000496 Ry

     iteration #  6     ecut=   100.00 Ry     beta= 0.50
     Davidson diagonalization with overlap
     ethr =  6.20E-08,  avg # of iterations =  4.1

     negative rho (up, down):  1.264E-04 0.000E+00

     total cpu time spent up to now is       54.3 secs

     End of self-consistent calculation

          k = 0.0000 0.0000 0.0000 ( 12127 PWs)   bands (ev):

   -21.8700  -9.9665  -5.4051  -5.4051

          k = 0.0000 0.0722 0.0000 ( 12081 PWs)   bands (ev):

   -21.7778  -9.8563  -5.7794  -5.6011

          k = 0.0000 0.1443 0.0000 ( 12063 PWs)   bands (ev):

   -21.5019  -9.5271  -6.7867  -6.1073

          k = 0.0000 0.2165 0.0000 ( 12031 PWs)   bands (ev):

   -21.0439  -8.9845  -8.1925  -6.7586

          k = 0.0000 0.2887 0.0000 ( 12035 PWs)   bands (ev):

   -20.4071  -9.7917  -8.2393  -7.4145

          k = 0.0000 0.3608 0.0000 ( 12025 PWs)   bands (ev):

   -19.5968 -11.4466  -7.9857  -7.3142

          k = 0.0000 0.4330 0.0000 ( 11991 PWs)   bands (ev):

   -18.6232 -13.0671  -8.4207  -6.2611

          k = 0.0000 0.5052 0.0000 ( 11980 PWs)   bands (ev):

   -17.5164 -14.5777  -8.6911  -5.2317

          k = 0.0000-0.5774 0.0000 ( 11964 PWs)   bands (ev):

   -16.6361 -15.5950  -8.7827  -4.7105

          k = 0.0625 0.1083 0.0000 ( 12075 PWs)   bands (ev):

   -21.5938  -9.6366  -6.4293  -5.9937

          k = 0.0625 0.1804 0.0000 ( 12076 PWs)   bands (ev):

   -21.2269  -9.2005  -7.5615  -6.6483

          k = 0.0625 0.2526 0.0000 ( 12055 PWs)   bands (ev):

   -20.6795  -9.0114  -8.5558  -7.3560

          k = 0.0625 0.3248 0.0000 ( 12044 PWs)   bands (ev):

   -19.9558 -10.6091  -7.9998  -7.7181

          k = 0.0625 0.3969 0.0000 ( 12018 PWs)   bands (ev):

   -19.0634 -12.2317  -8.5185  -6.7203

          k = 0.0625 0.4691 0.0000 ( 11993 PWs)   bands (ev):

   -18.0183 -13.7942  -8.8786  -5.6470

          k = 0.0625 0.5413 0.0000 ( 11957 PWs)   bands (ev):

   -16.9005 -15.1791  -9.0626  -4.7740

          k = 0.1250 0.2165 0.0000 ( 12079 PWs)   bands (ev):

   -20.7705  -8.6619  -8.5896  -7.5096

          k = 0.1250 0.2887 0.0000 ( 12054 PWs)   bands (ev):

   -20.1363  -9.8883  -8.3567  -7.9223

          k = 0.1250 0.3608 0.0000 ( 12017 PWs)   bands (ev):

   -19.3301 -11.3766  -9.0263  -7.0032

          k = 0.1250 0.4330 0.0000 ( 11999 PWs)   bands (ev):

   -18.3631 -12.9096  -9.5049  -5.9532

          k = 0.1250 0.5052 0.0000 ( 11979 PWs)   bands (ev):

   -17.2666 -14.3722  -9.7932  -4.9140

          k = 0.1250 0.5774 0.0000 ( 11960 PWs)   bands (ev):

   -16.3991 -15.3655  -9.8897  -4.3739

          k = 0.1875 0.3248 0.0000 ( 12041 PWs)   bands (ev):

   -19.4195 -10.8737  -9.4344  -7.0987

          k = 0.1875 0.3969 0.0000 ( 12015 PWs)   bands (ev):

   -18.5378 -12.0956 -10.2425  -6.1141

          k = 0.1875 0.4691 0.0000 ( 11988 PWs)   bands (ev):

   -17.5097 -13.4660 -10.7220  -5.0393

          k = 0.1875 0.5413 0.0000 ( 11957 PWs)   bands (ev):

   -16.4175 -14.7601 -10.9462  -4.1212

          k = 0.2500 0.4330 0.0000 ( 11995 PWs)   bands (ev):

   -17.5930 -12.8933 -11.3156  -5.0877

          k = 0.2500 0.5052 0.0000 ( 11969 PWs)   bands (ev):

   -16.5315 -13.9402 -11.9241  -4.0192

          k = 0.2500 0.5774 0.0000 ( 11964 PWs)   bands (ev):

   -15.6898 -14.8111 -12.0987  -3.3730

          k = 0.3125 0.5413 0.0000 ( 11948 PWs)   bands (ev):

   -15.5082 -14.5150 -12.7444  -2.9710

     highest occupied level (ev):    -2.9710

!    total energy              =     -36.88819174 Ry

     total all-electron energy =      -152.416386 Ry
     estimated scf accuracy    <       0.00000017 Ry

     The total energy is the sum of the following terms:
     one-electron contribution =    -223.56813406 Ry
     hartree contribution      =     113.21610891 Ry
     xc contribution           =      -9.27206315 Ry
     ewald contribution        =      95.06982811 Ry
     one-center paw contrib.   =     -12.33393154 Ry

     convergence has been achieved in   6 iterations

     Writing output data file ./tmp/graphene2.save/

     init_run     :      5.46s CPU      5.57s WALL (       1 calls)
     electrons    :     48.05s CPU     48.63s WALL (       1 calls)

     Called by init_run:
     wfcinit      :      4.35s CPU      4.38s WALL (       1 calls)
     potinit      :      0.40s CPU      0.42s WALL (       1 calls)
     hinit0       :      0.52s CPU      0.52s WALL (       1 calls)

     Called by electrons:
     c_bands      :     38.38s CPU     38.55s WALL (       6 calls)
     sum_band     :      7.22s CPU      7.43s WALL (       6 calls)
     v_of_rho     :      1.33s CPU      1.35s WALL (       7 calls)
     newd         :      0.57s CPU      0.78s WALL (       7 calls)
     PAW_pot      :      0.75s CPU      0.75s WALL (       7 calls)
     mix_rho      :      0.14s CPU      0.15s WALL (       6 calls)

     Called by c_bands:
     init_us_2    :      1.23s CPU      1.23s WALL (     390 calls)
     cegterg      :     36.47s CPU     36.63s WALL (     180 calls)

     Called by *egterg:
     cdiaghg      :      0.04s CPU      0.04s WALL (     587 calls)
     h_psi        :     35.67s CPU     35.84s WALL (     617 calls)
     s_psi        :      1.51s CPU      1.52s WALL (     617 calls)
     g_psi        :      0.19s CPU      0.19s WALL (     407 calls)

     Called by h_psi:
     h_psi:calbec :      1.44s CPU      1.44s WALL (     617 calls)
     vloc_psi     :     32.61s CPU     32.77s WALL (     617 calls)
     add_vuspsi   :      1.51s CPU      1.52s WALL (     617 calls)

     General routines
     calbec       :      1.87s CPU      1.87s WALL (     797 calls)
     fft          :      0.77s CPU      0.77s WALL (      77 calls)
     ffts         :      0.06s CPU      0.06s WALL (       6 calls)
     fftw         :     33.37s CPU     33.52s WALL (    5406 calls)

     Parallel routines

     PWSCF        :     53.65s CPU     54.38s WALL


   This run was terminated on:   9:44:32   4Aug2023            

=------------------------------------------------------------------------------=
   JOB DONE.
=------------------------------------------------------------------------------=
