
     Program PWSCF v.6.7MaX starts on  4Aug2023 at  9:42: 4 

     This program is part of the open-source Quantum ESPRESSO suite
     for quantum simulation of materials; please cite
         "P. Giannozzi et al., J. Phys.:Condens. Matter 21 395502 (2009);
         "P. Giannozzi et al., J. Phys.:Condens. Matter 29 465901 (2017);
          URL http://www.quantum-espresso.org", 
     in publications or presentations arising from this work. More details at
     http://www.quantum-espresso.org/quote

     Parallel version (MPI), running on     1 processors

     MPI processes distributed on     1 nodes
     Waiting for input...
     Reading input from standard input

     Current dimensions of program PWSCF are:
     Max number of different atomic species (ntypx) = 10
     Max number of k-points (npk) =  40000
     Max angular momentum in pseudopotentials (lmaxx) =  3
     file C.pbe-n-kjpaw_psl.1.0.0.UPF: wavefunction(s)  2S 2P renormalized

     Subspace diagonalization in iterative solution of the eigenvalue problem:
     a serial algorithm will be used


     G-vector sticks info
     --------------------
     sticks:   dense  smooth     PW     G-vecs:    dense   smooth      PW
     Sum         595     595    169                96043    96043   15131



     bravais-lattice index     =           12
     lattice parameter (alat)  =       4.6620  a.u.
     unit-cell volume          =     711.3700 (a.u.)^3
     number of atoms/cell      =            2
     number of atomic types    =            1
     number of electrons       =         8.00
     number of Kohn-Sham states=            4
     kinetic-energy cutoff     =     100.0000  Ry
     charge density cutoff     =     400.0000  Ry
     scf convergence threshold =      1.0E-04
     mixing beta               =       0.5000
     number of iterations used =            8  plain     mixing
     Exchange-correlation= SLA  PW   PBX  PBC
                           (   1   4   3   4   0   0   0)

     celldm(1)=   4.661954  celldm(2)=   1.000000  celldm(3)=   8.107013
     celldm(4)=  -0.500000  celldm(5)=   0.000000  celldm(6)=   0.000000

     crystal axes: (cart. coord. in units of alat)
               a(1) = (   1.000000   0.000000   0.000000 )  
               a(2) = (  -0.500000   0.866025   0.000000 )  
               a(3) = (   0.000000   0.000000   8.107013 )  

     reciprocal axes: (cart. coord. in units 2 pi/alat)
               b(1) = (  1.000000  0.577350 -0.000000 )  
               b(2) = (  0.000000  1.154701  0.000000 )  
               b(3) = (  0.000000 -0.000000  0.123350 )  


     PseudoPot. # 1 for C  read from file:
     ./Pseudo/C.pbe-n-kjpaw_psl.1.0.0.UPF
     MD5 check sum: ecdf03482cb4269f2fcfa842d572f30f
     Pseudo is Projector augmented-wave + core cor, Zval =  4.0
     Generated using &quot;atomic&quot; code by A. Dal Corso  v.6.3
     Shape of augmentation charge: PSQ
     Using radial grid of 1073 points,  4 beta functions with: 
                l(1) =   0
                l(2) =   0
                l(3) =   1
                l(4) =   1
     Q(r) pseudized with 0 coefficients 


     atomic species   valence    mass     pseudopotential
        C              4.00    12.01070     C ( 1.00)

     24 Sym. Ops., with inversion, found (18 have fractional translation)



   Cartesian axes

     site n.     atom                  positions (alat units)
         1           C   tau(   1) = (   0.0000000   0.0000000   2.0267531  )
         2           C   tau(   2) = (  -0.0000000   0.5773503   2.0267531  )

     number of k points=    30
                       cart. coord. in units 2pi/alat
        k(    1) = (   0.0000000   0.0000000   0.0000000), wk =   0.0078125
        k(    2) = (   0.0000000   0.0721688   0.0000000), wk =   0.0468750
        k(    3) = (   0.0000000   0.1443376   0.0000000), wk =   0.0468750
        k(    4) = (   0.0000000   0.2165064   0.0000000), wk =   0.0468750
        k(    5) = (   0.0000000   0.2886751   0.0000000), wk =   0.0468750
        k(    6) = (   0.0000000   0.3608439   0.0000000), wk =   0.0468750
        k(    7) = (   0.0000000   0.4330127   0.0000000), wk =   0.0468750
        k(    8) = (   0.0000000   0.5051815   0.0000000), wk =   0.0468750
        k(    9) = (   0.0000000  -0.5773503   0.0000000), wk =   0.0234375
        k(   10) = (   0.0625000   0.1082532   0.0000000), wk =   0.0468750
        k(   11) = (   0.0625000   0.1804220   0.0000000), wk =   0.0937500
        k(   12) = (   0.0625000   0.2525907   0.0000000), wk =   0.0937500
        k(   13) = (   0.0625000   0.3247595   0.0000000), wk =   0.0937500
        k(   14) = (   0.0625000   0.3969283   0.0000000), wk =   0.0937500
        k(   15) = (   0.0625000   0.4690971   0.0000000), wk =   0.0937500
        k(   16) = (   0.0625000   0.5412659   0.0000000), wk =   0.0937500
        k(   17) = (   0.1250000   0.2165064   0.0000000), wk =   0.0468750
        k(   18) = (   0.1250000   0.2886751   0.0000000), wk =   0.0937500
        k(   19) = (   0.1250000   0.3608439   0.0000000), wk =   0.0937500
        k(   20) = (   0.1250000   0.4330127   0.0000000), wk =   0.0937500
        k(   21) = (   0.1250000   0.5051815   0.0000000), wk =   0.0937500
        k(   22) = (   0.1250000   0.5773503   0.0000000), wk =   0.0468750
        k(   23) = (   0.1875000   0.3247595   0.0000000), wk =   0.0468750
        k(   24) = (   0.1875000   0.3969283   0.0000000), wk =   0.0937500
        k(   25) = (   0.1875000   0.4690971   0.0000000), wk =   0.0937500
        k(   26) = (   0.1875000   0.5412659   0.0000000), wk =   0.0937500
        k(   27) = (   0.2500000   0.4330127   0.0000000), wk =   0.0468750
        k(   28) = (   0.2500000   0.5051815   0.0000000), wk =   0.0937500
        k(   29) = (   0.2500000   0.5773503   0.0000000), wk =   0.0468750
        k(   30) = (   0.3125000   0.5412659   0.0000000), wk =   0.0468750

     Dense  grid:    96043 G-vectors     FFT dimensions: (  30,  30, 250)

     Estimated max dynamical RAM per process >     147.45 MB

     Check: negative core charge=   -0.000002

     Initial potential from superposition of free atoms

     starting charge    7.99992, renormalised to    8.00000

     negative rho (up, down):  1.067E-04 0.000E+00
     Starting wfcs are    8 randomized atomic wfcs
     Checking if some PAW data can be deallocated... 

     total cpu time spent up to now is        6.7 secs

     Self-consistent Calculation

     iteration #  1     ecut=   100.00 Ry     beta= 0.50
     Davidson diagonalization with overlap
     ethr =  1.00E-02,  avg # of iterations =  2.0

     negative rho (up, down):  1.122E-04 0.000E+00

     total cpu time spent up to now is       16.6 secs

     total energy              =     -36.88537083 Ry
     estimated scf accuracy    <       0.17898938 Ry

     iteration #  2     ecut=   100.00 Ry     beta= 0.50
     Davidson diagonalization with overlap
     ethr =  2.24E-03,  avg # of iterations =  1.5

     negative rho (up, down):  1.240E-04 0.000E+00

     total cpu time spent up to now is       23.2 secs

     total energy              =     -36.88302984 Ry
     estimated scf accuracy    <       0.02296804 Ry

     iteration #  3     ecut=   100.00 Ry     beta= 0.50
     Davidson diagonalization with overlap
     ethr =  2.87E-04,  avg # of iterations =  2.0

     negative rho (up, down):  1.241E-04 0.000E+00

     total cpu time spent up to now is       31.3 secs

     total energy              =     -36.88805687 Ry
     estimated scf accuracy    <       0.00094274 Ry

     iteration #  4     ecut=   100.00 Ry     beta= 0.50
     Davidson diagonalization with overlap
     ethr =  1.18E-05,  avg # of iterations =  2.0

     negative rho (up, down):  1.271E-04 0.000E+00

     total cpu time spent up to now is       39.5 secs

     total energy              =     -36.88812029 Ry
     estimated scf accuracy    <       0.00033426 Ry

     iteration #  5     ecut=   100.00 Ry     beta= 0.50
     Davidson diagonalization with overlap
     ethr =  4.18E-06,  avg # of iterations =  2.0

     negative rho (up, down):  1.264E-04 0.000E+00

     total cpu time spent up to now is       47.5 secs

     End of self-consistent calculation

          k = 0.0000 0.0000 0.0000 ( 12127 PWs)   bands (ev):

   -21.8515  -9.9525  -5.3823  -5.3823

          k = 0.0000 0.0722 0.0000 ( 12081 PWs)   bands (ev):

   -21.7593  -9.8423  -5.7568  -5.5784

          k = 0.0000 0.1443 0.0000 ( 12063 PWs)   bands (ev):

   -21.4833  -9.5131  -6.7645  -6.0848

          k = 0.0000 0.2165 0.0000 ( 12031 PWs)   bands (ev):

   -21.0253  -8.9703  -8.1708  -6.7363

          k = 0.0000 0.2887 0.0000 ( 12035 PWs)   bands (ev):

   -20.3883  -9.7706  -8.2250  -7.3924

          k = 0.0000 0.3608 0.0000 ( 12025 PWs)   bands (ev):

   -19.5779 -11.4259  -7.9638  -7.2996

          k = 0.0000 0.4330 0.0000 ( 11991 PWs)   bands (ev):

   -18.6041 -13.0469  -8.3989  -6.2463

          k = 0.0000 0.5052 0.0000 ( 11980 PWs)   bands (ev):

   -17.4970 -14.5579  -8.6693  -5.2164

          k = 0.0000-0.5774 0.0000 ( 11964 PWs)   bands (ev):

   -16.6163 -15.5757  -8.7609  -4.6949

          k = 0.0625 0.1083 0.0000 ( 12075 PWs)   bands (ev):

   -21.5752  -9.6225  -6.4069  -5.9711

          k = 0.0625 0.1804 0.0000 ( 12076 PWs)   bands (ev):

   -21.2082  -9.1864  -7.5396  -6.6260

          k = 0.0625 0.2526 0.0000 ( 12055 PWs)   bands (ev):

   -20.6607  -8.9900  -8.5416  -7.3340

          k = 0.0625 0.3248 0.0000 ( 12044 PWs)   bands (ev):

   -19.9370 -10.5881  -7.9780  -7.7037

          k = 0.0625 0.3969 0.0000 ( 12018 PWs)   bands (ev):

   -19.0443 -12.2112  -8.4967  -6.7056

          k = 0.0625 0.4691 0.0000 ( 11993 PWs)   bands (ev):

   -17.9990 -13.7742  -8.8570  -5.6319

          k = 0.0625 0.5413 0.0000 ( 11957 PWs)   bands (ev):

   -16.8808 -15.1596  -9.0410  -4.7584

          k = 0.1250 0.2165 0.0000 ( 12079 PWs)   bands (ev):

   -20.7518  -8.6477  -8.5680  -7.4878

          k = 0.1250 0.2887 0.0000 ( 12054 PWs)   bands (ev):

   -20.1175  -9.8671  -8.3352  -7.9079

          k = 0.1250 0.3608 0.0000 ( 12017 PWs)   bands (ev):

   -19.3112 -11.3558  -9.0050  -6.9886

          k = 0.1250 0.4330 0.0000 ( 11999 PWs)   bands (ev):

   -18.3439 -12.8893  -9.4836  -5.9383

          k = 0.1250 0.5052 0.0000 ( 11979 PWs)   bands (ev):

   -17.2471 -14.3523  -9.7721  -4.8986

          k = 0.1250 0.5774 0.0000 ( 11960 PWs)   bands (ev):

   -16.3792 -15.3461  -9.8685  -4.3583

          k = 0.1875 0.3248 0.0000 ( 12041 PWs)   bands (ev):

   -19.4005 -10.8526  -9.4134  -7.0841

          k = 0.1875 0.3969 0.0000 ( 12015 PWs)   bands (ev):

   -18.5186 -12.0749 -10.2218  -6.0993

          k = 0.1875 0.4691 0.0000 ( 11988 PWs)   bands (ev):

   -17.4903 -13.4458 -10.7014  -5.0241

          k = 0.1875 0.5413 0.0000 ( 11957 PWs)   bands (ev):

   -16.3978 -14.7403 -10.9255  -4.1056

          k = 0.2500 0.4330 0.0000 ( 11995 PWs)   bands (ev):

   -17.5736 -12.8727 -11.2954  -5.0725

          k = 0.2500 0.5052 0.0000 ( 11969 PWs)   bands (ev):

   -16.5118 -13.9200 -11.9041  -4.0036

          k = 0.2500 0.5774 0.0000 ( 11964 PWs)   bands (ev):

   -15.6698 -14.7913 -12.0787  -3.3573

          k = 0.3125 0.5413 0.0000 ( 11948 PWs)   bands (ev):

   -15.4882 -14.4947 -12.7248  -2.9552

     highest occupied level (ev):    -2.9552

!    total energy              =     -36.88818793 Ry

     total all-electron energy =      -152.416382 Ry
     estimated scf accuracy    <       0.00000496 Ry

     The total energy is the sum of the following terms:
     one-electron contribution =    -223.56502138 Ry
     hartree contribution      =     113.21258468 Ry
     xc contribution           =      -9.27170728 Ry
     ewald contribution        =      95.06982811 Ry
     one-center paw contrib.   =     -12.33387206 Ry

     convergence has been achieved in   5 iterations

     Writing output data file ./tmp/graphene2.save/

     init_run     :      5.58s CPU      6.01s WALL (       1 calls)
     electrons    :     40.20s CPU     40.90s WALL (       1 calls)

     Called by init_run:
     wfcinit      :      4.39s CPU      4.45s WALL (       1 calls)
     potinit      :      0.42s CPU      0.55s WALL (       1 calls)
     hinit0       :      0.53s CPU      0.63s WALL (       1 calls)

     Called by electrons:
     c_bands      :     31.77s CPU     32.03s WALL (       5 calls)
     sum_band     :      6.35s CPU      6.59s WALL (       5 calls)
     v_of_rho     :      1.16s CPU      1.20s WALL (       6 calls)
     newd         :      0.50s CPU      0.67s WALL (       6 calls)
     PAW_pot      :      0.66s CPU      0.68s WALL (       6 calls)
     mix_rho      :      0.10s CPU      0.14s WALL (       5 calls)

     Called by c_bands:
     init_us_2    :      1.07s CPU      1.08s WALL (     330 calls)
     cegterg      :     30.14s CPU     30.39s WALL (     150 calls)

     Called by *egterg:
     cdiaghg      :      0.03s CPU      0.18s WALL (     435 calls)
     h_psi        :     30.19s CPU     30.33s WALL (     465 calls)
     s_psi        :      1.30s CPU      1.31s WALL (     465 calls)
     g_psi        :      0.15s CPU      0.15s WALL (     285 calls)

     Called by h_psi:
     h_psi:calbec :      1.23s CPU      1.23s WALL (     465 calls)
     vloc_psi     :     27.59s CPU     27.71s WALL (     465 calls)
     add_vuspsi   :      1.27s CPU      1.29s WALL (     465 calls)

     General routines
     calbec       :      1.63s CPU      1.64s WALL (     615 calls)
     fft          :      0.68s CPU      0.73s WALL (      66 calls)
     ffts         :      0.05s CPU      0.05s WALL (       5 calls)
     fftw         :     28.55s CPU     28.71s WALL (    4446 calls)

     Parallel routines

     PWSCF        :     46.02s CPU     47.80s WALL


   This run was terminated on:   9:42:52   4Aug2023            

=------------------------------------------------------------------------------=
   JOB DONE.
=------------------------------------------------------------------------------=
